 Entering Gaussian System, Link 0=/opt/apps/apps/binapps/gaussian/g09d01_em64t/g09/g09
 Initial command:
 /opt/apps/apps/binapps/gaussian/g09d01_em64t/g09/l1.exe "/net/scratch2/mbdx6cw3/aspirin/300K-meta/dft/qm_input/gau_temp_1/Gau-22962.inp" -scrdir="/net/scratch2/mbdx6cw3/aspirin/300K-meta/dft/qm_input/gau_temp_1/"
 Entering Link 1 = /opt/apps/apps/binapps/gaussian/g09d01_em64t/g09/l1.exe PID=     22965.
  
 Copyright (c) 1988,1990,1992,1993,1995,1998,2003,2009,2013,
            Gaussian, Inc.  All Rights Reserved.
  
 This is part of the Gaussian(R) 09 program.  It is based on
 the Gaussian(R) 03 system (copyright 2003, Gaussian, Inc.),
 the Gaussian(R) 98 system (copyright 1998, Gaussian, Inc.),
 the Gaussian(R) 94 system (copyright 1995, Gaussian, Inc.),
 the Gaussian 92(TM) system (copyright 1992, Gaussian, Inc.),
 the Gaussian 90(TM) system (copyright 1990, Gaussian, Inc.),
 the Gaussian 88(TM) system (copyright 1988, Gaussian, Inc.),
 the Gaussian 86(TM) system (copyright 1986, Carnegie Mellon
 University), and the Gaussian 82(TM) system (copyright 1983,
 Carnegie Mellon University). Gaussian is a federally registered
 trademark of Gaussian, Inc.
  
 This software contains proprietary and confidential information,
 including trade secrets, belonging to Gaussian, Inc.
  
 This software is provided under written license and may be
 used, copied, transmitted, or stored only in accord with that
 written license.
  
 The following legend is applicable only to US Government
 contracts under FAR:
  
                    RESTRICTED RIGHTS LEGEND
  
 Use, reproduction and disclosure by the US Government is
 subject to restrictions as set forth in subparagraphs (a)
 and (c) of the Commercial Computer Software - Restricted
 Rights clause in FAR 52.227-19.
  
 Gaussian, Inc.
 340 Quinnipiac St., Bldg. 40, Wallingford CT 06492
  
  
 ---------------------------------------------------------------
 Warning -- This program may not be used in any manner that
 competes with the business of Gaussian, Inc. or will provide
 assistance to any competitor of Gaussian, Inc.  The licensee
 of this program is prohibited from giving any competitor of
 Gaussian, Inc. access to this program.  By using this program,
 the user acknowledges that Gaussian, Inc. is engaged in the
 business of creating and licensing software in the field of
 computational chemistry and represents and warrants to the
 licensee that it is not a competitor of Gaussian, Inc. and that
 it will not use this program in any manner prohibited above.
 ---------------------------------------------------------------
  

 Cite this work as:
 Gaussian 09, Revision D.01,
 M. J. Frisch, G. W. Trucks, H. B. Schlegel, G. E. Scuseria, 
 M. A. Robb, J. R. Cheeseman, G. Scalmani, V. Barone, B. Mennucci, 
 G. A. Petersson, H. Nakatsuji, M. Caricato, X. Li, H. P. Hratchian, 
 A. F. Izmaylov, J. Bloino, G. Zheng, J. L. Sonnenberg, M. Hada, 
 M. Ehara, K. Toyota, R. Fukuda, J. Hasegawa, M. Ishida, T. Nakajima, 
 Y. Honda, O. Kitao, H. Nakai, T. Vreven, J. A. Montgomery, Jr., 
 J. E. Peralta, F. Ogliaro, M. Bearpark, J. J. Heyd, E. Brothers, 
 K. N. Kudin, V. N. Staroverov, T. Keith, R. Kobayashi, J. Normand, 
 K. Raghavachari, A. Rendell, J. C. Burant, S. S. Iyengar, J. Tomasi, 
 M. Cossi, N. Rega, J. M. Millam, M. Klene, J. E. Knox, J. B. Cross, 
 V. Bakken, C. Adamo, J. Jaramillo, R. Gomperts, R. E. Stratmann, 
 O. Yazyev, A. J. Austin, R. Cammi, C. Pomelli, J. W. Ochterski, 
 R. L. Martin, K. Morokuma, V. G. Zakrzewski, G. A. Voth, 
 P. Salvador, J. J. Dannenberg, S. Dapprich, A. D. Daniels, 
 O. Farkas, J. B. Foresman, J. V. Ortiz, J. Cioslowski, 
 and D. J. Fox, Gaussian, Inc., Wallingford CT, 2013.
 
 ******************************************
 Gaussian 09:  ES64L-G09RevD.01 24-Apr-2013
                 7-Aug-2023 
 ******************************************
 %chk=./gau_temp_1/mol_chk.chk
 %mem=3500MB
 -------------------------------------------------------------------
 #p b3lyp/6-31g* pop=mk empiricaldispersion=gd3 int(ultrafine) force
 -------------------------------------------------------------------
 1/10=7,30=1,38=1/1,3;
 2/12=2,17=6,18=5,40=1/2;
 3/5=1,6=6,7=1,11=2,16=1,25=1,30=1,71=1,74=-5,75=-5,124=31/1,2,3;
 4//1;
 5/5=2,38=5/2;
 6/7=2,8=2,9=2,10=2,15=8,20=1,28=1/1,2;
 7/29=1/1,2,3,16;
 1/10=7,30=1/3;
 99//99;
 Leave Link    1 at Mon Aug  7 12:46:47 2023, MaxMem=   458752000 cpu:         0.0
 (Enter /opt/apps/apps/binapps/gaussian/g09d01_em64t/g09/l101.exe)
 -------
 aspirin
 -------
 Symbolic Z-matrix:
 Charge =  0 Multiplicity = 1
 C                     13.27754   10.47819   13.3807 
 C                     12.16934   12.93215   13.98758 
 C                     13.25924   10.85696   14.73447 
 C                     12.7276   12.16065   15.06277 
 C                     10.4347   14.899    10.59908 
 C                     12.86366   11.27474   12.30836 
 C                     12.28009   12.51089   12.67829 
 O                     13.63973   9.80851   10.59901 
 O                     9.67787   14.01125   12.59519 
 O                     12.7206   11.66178   9.91715 
 C                     13.02031   10.81457   10.91072 
 C                     10.6333   14.13122   11.83742 
 O                     11.69998   13.29994   11.70109 
 H                     12.24634   12.36888   10.51502 
 H                     13.69662   9.47598   13.09044 
 H                     11.73961   13.86906   14.30107 
 H                     13.69211   10.21781   15.48541 
 H                     12.66035   12.46828   16.07022 
 H                     11.40447   15.45495   10.46464 
 H                     10.23092   14.31967   9.76023 
 H                     9.61329   15.62673   10.70455 
 
 NAtoms=     21 NQM=       21 NQMF=       0 NMMI=      0 NMMIF=      0
                NMic=       0 NMicF=      0.
                    Isotopes and Nuclear Properties:
 (Nuclear quadrupole moments (NQMom) in fm**2, nuclear magnetic moments (NMagM)
  in nuclear magnetons)

  Atom         1           2           3           4           5           6           7           8           9          10
 IAtWgt=          12          12          12          12          12          12          12          16          16          16
 AtmWgt=  12.0000000  12.0000000  12.0000000  12.0000000  12.0000000  12.0000000  12.0000000  15.9949146  15.9949146  15.9949146
 NucSpn=           0           0           0           0           0           0           0           0           0           0
 AtZEff=   0.0000000   0.0000000   0.0000000   0.0000000   0.0000000   0.0000000   0.0000000   0.0000000   0.0000000   0.0000000
 NQMom=    0.0000000   0.0000000   0.0000000   0.0000000   0.0000000   0.0000000   0.0000000   0.0000000   0.0000000   0.0000000
 NMagM=    0.0000000   0.0000000   0.0000000   0.0000000   0.0000000   0.0000000   0.0000000   0.0000000   0.0000000   0.0000000
 AtZNuc=   6.0000000   6.0000000   6.0000000   6.0000000   6.0000000   6.0000000   6.0000000   8.0000000   8.0000000   8.0000000

  Atom        11          12          13          14          15          16          17          18          19          20
 IAtWgt=          12          12          16           1           1           1           1           1           1           1
 AtmWgt=  12.0000000  12.0000000  15.9949146   1.0078250   1.0078250   1.0078250   1.0078250   1.0078250   1.0078250   1.0078250
 NucSpn=           0           0           0           1           1           1           1           1           1           1
 AtZEff=   0.0000000   0.0000000   0.0000000   0.0000000   0.0000000   0.0000000   0.0000000   0.0000000   0.0000000   0.0000000
 NQMom=    0.0000000   0.0000000   0.0000000   0.0000000   0.0000000   0.0000000   0.0000000   0.0000000   0.0000000   0.0000000
 NMagM=    0.0000000   0.0000000   0.0000000   2.7928460   2.7928460   2.7928460   2.7928460   2.7928460   2.7928460   2.7928460
 AtZNuc=   6.0000000   6.0000000   8.0000000   1.0000000   1.0000000   1.0000000   1.0000000   1.0000000   1.0000000   1.0000000

  Atom        21
 IAtWgt=           1
 AtmWgt=   1.0078250
 NucSpn=           1
 AtZEff=   0.0000000
 NQMom=    0.0000000
 NMagM=    2.7928460
 AtZNuc=   1.0000000
 Leave Link  101 at Mon Aug  7 12:46:47 2023, MaxMem=   458752000 cpu:         0.1
 (Enter /opt/apps/apps/binapps/gaussian/g09d01_em64t/g09/l103.exe)

 GradGradGradGradGradGradGradGradGradGradGradGradGradGradGradGradGradGrad
 Berny optimization.
 Initialization pass.
 Trust Radius=3.00D-01 FncErr=1.00D-07 GrdErr=1.00D-07
 Number of steps in this run=      2 maximum allowed number of steps=      2.
 GradGradGradGradGradGradGradGradGradGradGradGradGradGradGradGradGradGrad

 Leave Link  103 at Mon Aug  7 12:46:48 2023, MaxMem=   458752000 cpu:         0.0
 (Enter /opt/apps/apps/binapps/gaussian/g09d01_em64t/g09/l202.exe)
                          Input orientation:                          
 ---------------------------------------------------------------------
 Center     Atomic      Atomic             Coordinates (Angstroms)
 Number     Number       Type             X           Y           Z
 ---------------------------------------------------------------------
      1          6           0       13.277545   10.478185   13.380699
      2          6           0       12.169344   12.932153   13.987581
      3          6           0       13.259244   10.856956   14.734467
      4          6           0       12.727600   12.160650   15.062773
      5          6           0       10.434701   14.899005   10.599080
      6          6           0       12.863662   11.274742   12.308360
      7          6           0       12.280089   12.510890   12.678293
      8          8           0       13.639733    9.808505   10.599006
      9          8           0        9.677866   14.011251   12.595185
     10          8           0       12.720599   11.661782    9.917148
     11          6           0       13.020306   10.814567   10.910720
     12          6           0       10.633297   14.131224   11.837417
     13          8           0       11.699978   13.299938   11.701094
     14          1           0       12.246339   12.368877   10.515022
     15          1           0       13.696623    9.475981   13.090445
     16          1           0       11.739609   13.869063   14.301070
     17          1           0       13.692111   10.217808   15.485414
     18          1           0       12.660350   12.468278   16.070218
     19          1           0       11.404475   15.454948   10.464640
     20          1           0       10.230924   14.319673    9.760233
     21          1           0        9.613286   15.626732   10.704550
 ---------------------------------------------------------------------
                    Distance matrix (angstroms):
                    1          2          3          4          5
     1  C    0.000000
     2  C    2.760139   0.000000
     3  C    1.405877   2.460114   0.000000
     4  C    2.441823   1.436282   1.445700   0.000000
     5  C    5.946663   4.284790   6.435652   5.716688   0.000000
     6  C    1.398468   2.459445   2.493396   2.896573   4.685805
     7  C    2.370692   1.379841   2.814621   2.451261   3.664925
     8  O    2.884002   4.837525   4.283230   5.127357   6.015431
     9  O    5.104632   3.051341   5.229949   4.337579   2.311999
    10  O    3.702334   4.299552   4.913700   5.169756   4.021190
    11  C    2.506017   3.830846   3.831440   4.374605   4.844079
    12  C    4.766389   2.901796   5.099934   4.321133   1.470512
    13  O    3.643087   2.362963   4.195334   3.695250   2.317838
    14  H    3.584718   3.518788   4.595171   4.577883   3.112980
    15  H    1.124405   3.883627   2.191165   3.469371   6.801192
    16  H    3.835411   1.077380   3.401457   2.115417   4.058114
    17  H    2.160899   3.453981   1.076942   2.209873   7.510031
    18  H    3.402192   2.189439   2.176985   1.055511   6.387119
    19  H    6.064648   4.400072   6.543174   5.809121   1.125881
    20  H    6.094809   4.853159   6.775259   6.245935   1.039623
    21  H    6.862660   4.957064   7.230768   6.380187   1.102467
                    6          7          8          9         10
     6  C    0.000000
     7  C    1.416146   0.000000
     8  O    2.382021   3.670824   0.000000
     9  O    4.209519   3.004921   6.110989   0.000000
    10  O    2.426554   2.922149   2.178158   4.685094   0.000000
    11  C    1.479763   2.559248   1.221890   4.922206   1.339695
    12  C    3.654560   2.458552   5.409086   1.225338   3.760639
    13  O    2.413370   1.383490   4.143350   2.322563   2.628248
    14  H    2.189585   2.168190   2.916179   3.690735   1.040365
    15  H    2.130967   3.374479   2.514175   6.079832   3.974942
    16  H    3.459030   2.184069   5.814110   2.679747   5.005317
    17  H    3.449218   3.889982   4.903800   6.233602   5.833908
    18  H    3.951891   3.413440   6.161797   4.832373   6.205992
    19  H    4.796108   3.786085   6.074269   3.099139   4.052164
    20  H    4.764018   3.998231   5.716131   2.904815   3.645200
    21  H    5.663654   4.551480   7.076381   2.487660   5.098649
                   11         12         13         14         15
    11  C    0.000000
    12  C    4.190083   0.000000
    13  O    2.923188   1.359201   0.000000
    14  H    1.780865   2.730659   1.603793   0.000000
    15  H    2.645830   5.711859   4.532057   4.135816   0.000000
    16  H    4.739684   2.713345   2.661832   4.103838   4.959303
    17  H    4.662110   6.162714   5.271546   5.605546   2.507231
    18  H    5.429987   4.979050   4.550079   5.571489   4.348190
    19  H    4.933866   2.057056   2.502041   3.199236   6.920754
    20  H    4.624937   2.124173   2.639114   2.904688   6.823689
    21  H    5.899765   2.135499   3.280450   4.193150   7.758729
                   16         17         18         19         20
    16  H    0.000000
    17  H    4.306575   0.000000
    18  H    2.437180   2.543844   0.000000
    19  H    4.164798   7.607173   6.474560   0.000000
    20  H    4.806078   7.847472   7.010398   1.778275   0.000000
    21  H    4.532727   8.291558   6.931870   1.815330   1.726735
                   21
    21  H    0.000000
 Stoichiometry    C9H8O4
 Framework group  C1[X(C9H8O4)]
 Deg. of freedom    57
 Full point group                 C1      NOp   1
 Largest Abelian subgroup         C1      NOp   1
 Largest concise Abelian subgroup C1      NOp   1
                         Standard orientation:                         
 ---------------------------------------------------------------------
 Center     Atomic      Atomic             Coordinates (Angstroms)
 Number     Number       Type             X           Y           Z
 ---------------------------------------------------------------------
      1          6           0       -2.354840   -0.468495    0.218141
      2          6           0       -0.014058   -1.820527   -0.339642
      3          6           0       -2.440547   -1.863207    0.063463
      4          6           0       -1.232028   -2.579269   -0.278273
      5          6           0        3.456824    0.691080   -0.274568
      6          6           0       -1.203012    0.301086    0.026437
      7          6           0       -0.027307   -0.444991   -0.231547
      8          8           0       -2.285868    2.414674    0.211359
      9          8           0        2.657629   -1.101652    0.947210
     10          8           0       -0.146336    2.474474   -0.192621
     11          6           0       -1.247582    1.777379    0.117378
     12          6           0        2.405566   -0.274410    0.079115
     13          8           0        1.188953    0.212453   -0.281782
     14          1           0        0.498607    1.658354   -0.211461
     15          1           0       -3.279194    0.119680    0.470937
     16          1           0        0.860295   -2.415982   -0.543820
     17          1           0       -3.392572   -2.361954    0.132045
     18          1           0       -1.244887   -3.631056   -0.365919
     19          1           0        3.350824    0.813398   -1.388754
     20          1           0        3.373680    1.612472    0.199711
     21          1           0        4.460133    0.293634   -0.049089
 ---------------------------------------------------------------------
 Rotational constants (GHZ):      1.0601299      0.7035141      0.4407988
 Leave Link  202 at Mon Aug  7 12:46:48 2023, MaxMem=   458752000 cpu:         0.0
 (Enter /opt/apps/apps/binapps/gaussian/g09d01_em64t/g09/l301.exe)
 Standard basis: 6-31G(d) (6D, 7F)
 Ernie: Thresh=  0.10000D-02 Tol=  0.10000D-05 Strict=F.
 There are   211 symmetry adapted cartesian basis functions of A   symmetry.
 There are   211 symmetry adapted basis functions of A   symmetry.
   211 basis functions,   396 primitive gaussians,   211 cartesian basis functions
    47 alpha electrons       47 beta electrons
       nuclear repulsion energy       770.7246613804 Hartrees.
 IExCor=  402 DFT=T Ex+Corr=B3LYP ExCW=0 ScaHFX=  0.200000
 ScaDFX=  0.800000  0.720000  1.000000  0.810000 ScalE2=  1.000000  1.000000
 IRadAn=      5 IRanWt=     -1 IRanGd=            0 ICorTp=0 IEmpDi=131
 NAtoms=   21 NActive=   21 NUniq=   21 SFac= 1.00D+00 NAtFMM=   60 NAOKFM=F Big=F
 Integral buffers will be    131072 words long.
 Raffenetti 2 integral format.
 Two-electron integral symmetry is turned on.
 R6Disp:  Grimme-D3 Dispersion energy=       -0.0173736663 Hartrees.
 Nuclear repulsion after empirical dispersion term =      770.7072877141 Hartrees.
 Leave Link  301 at Mon Aug  7 12:46:48 2023, MaxMem=   458752000 cpu:         0.0
 (Enter /opt/apps/apps/binapps/gaussian/g09d01_em64t/g09/l302.exe)
 NPDir=0 NMtPBC=     1 NCelOv=     1 NCel=       1 NClECP=     1 NCelD=      1
         NCelK=      1 NCelE2=     1 NClLst=     1 CellRange=     0.0.
 One-electron integrals computed using PRISM.
 NBasis=   211 RedAO= T EigKep=  4.77D-04  NBF=   211
 NBsUse=   211 1.00D-06 EigRej= -1.00D+00 NBFU=   211
 Precomputing XC quadrature grid using
 IXCGrd= 4 IRadAn=           5 IRanWt=          -1 IRanGd=           0 AccXCQ= 0.00D+00.
 Generated NRdTot=       0 NPtTot=           0 NUsed=           0 NTot=          32
 NSgBfM=   210   210   210   210   210 MxSgAt=    21 MxSgA2=    21.
 Leave Link  302 at Mon Aug  7 12:46:48 2023, MaxMem=   458752000 cpu:         0.6
 (Enter /opt/apps/apps/binapps/gaussian/g09d01_em64t/g09/l303.exe)
 DipDrv:  MaxL=1.
 Leave Link  303 at Mon Aug  7 12:46:48 2023, MaxMem=   458752000 cpu:         0.0
 (Enter /opt/apps/apps/binapps/gaussian/g09d01_em64t/g09/l401.exe)
 ExpMin= 1.61D-01 ExpMax= 5.48D+03 ExpMxC= 8.25D+02 IAcc=3 IRadAn=         5 AccDes= 0.00D+00
 Harris functional with IExCor=  402 and IRadAn=       5 diagonalized for initial guess.
 HarFok:  IExCor=  402 AccDes= 0.00D+00 IRadAn=         5 IDoV= 1 UseB2=F ITyADJ=14
 ICtDFT=  3500011 ScaDFX=  1.000000  1.000000  1.000000  1.000000
 FoFCou: FMM=F IPFlag=           0 FMFlag=      100000 FMFlg1=           0
         NFxFlg=           0 DoJE=T BraDBF=F KetDBF=T FulRan=T
         wScrn=  0.000000 ICntrl=     500 IOpCl=  0 I1Cent=   200000004 NGrid=           0
         NMat0=    1 NMatS0=      1 NMatT0=    0 NMatD0=    1 NMtDS0=    0 NMtDT0=    0
 Petite list used in FoFCou.
 Harris En= -648.695470416900    
 JPrj=0 DoOrth=F DoCkMO=F.
 Leave Link  401 at Mon Aug  7 12:46:56 2023, MaxMem=   458752000 cpu:         7.5
 (Enter /opt/apps/apps/binapps/gaussian/g09d01_em64t/g09/l502.exe)
 Closed shell SCF:
 Using DIIS extrapolation, IDIIS=  1040.
 Integral symmetry usage will be decided dynamically.
 Keep R1 ints in memory in canonical form, NReq=255049085.
 IVT=      154966 IEndB=      154966 NGot=   458752000 MDV=   208466874
 LenX=   208466874 LenY=   208421912
 Requested convergence on RMS density matrix=1.00D-08 within 128 cycles.
 Requested convergence on MAX density matrix=1.00D-06.
 Requested convergence on             energy=1.00D-06.
 No special actions if energy rises.
 FoFCou: FMM=F IPFlag=           0 FMFlag=           0 FMFlg1=           0
         NFxFlg=           0 DoJE=F BraDBF=F KetDBF=F FulRan=T
         wScrn=  0.000000 ICntrl=     600 IOpCl=  0 I1Cent=           0 NGrid=           0
         NMat0=    1 NMatS0=  22366 NMatT0=    0 NMatD0=    1 NMtDS0=    0 NMtDT0=    0
 Symmetry not used in FoFCou.
 Integral accuracy reduced to 1.0D-05 until final iterations.

 Cycle   1  Pass 0  IDiag  1:
 E= -648.295242222297    
 DIIS: error= 2.53D-02 at cycle   1 NSaved=   1.
 NSaved= 1 IEnMin= 1 EnMin= -648.295242222297     IErMin= 1 ErrMin= 2.53D-02
 ErrMax= 2.53D-02  0.00D+00 EMaxC= 1.00D-01 BMatC= 4.21D-01 BMatP= 4.21D-01
 IDIUse=3 WtCom= 7.47D-01 WtEn= 2.53D-01
 Coeff-Com:  0.100D+01
 Coeff-En:   0.100D+01
 Coeff:      0.100D+01
 Gap=     0.220 Goal=   None    Shift=    0.000
 GapD=    0.220 DampG=1.000 DampE=0.500 DampFc=0.5000 IDamp=-1.
 Damping current iteration by 5.00D-01
 RMSDP=8.25D-03 MaxDP=2.41D-01              OVMax= 3.09D-01

 Cycle   2  Pass 0  IDiag  1:
 E= -648.310176169364     Delta-E=       -0.014933947066 Rises=F Damp=T
 DIIS: error= 1.49D-02 at cycle   2 NSaved=   2.
 NSaved= 2 IEnMin= 2 EnMin= -648.310176169364     IErMin= 2 ErrMin= 1.49D-02
 ErrMax= 1.49D-02  0.00D+00 EMaxC= 1.00D-01 BMatC= 1.31D-01 BMatP= 4.21D-01
 IDIUse=3 WtCom= 8.51D-01 WtEn= 1.49D-01
 Coeff-Com:  0.320D+00 0.680D+00
 Coeff-En:   0.483D+00 0.517D+00
 Coeff:      0.344D+00 0.656D+00
 Gap=     0.181 Goal=   None    Shift=    0.000
 RMSDP=2.93D-03 MaxDP=9.25D-02 DE=-1.49D-02 OVMax= 2.60D-01

 Cycle   3  Pass 0  IDiag  1:
 E= -648.586290156413     Delta-E=       -0.276113987049 Rises=F Damp=F
 DIIS: error= 1.35D-02 at cycle   3 NSaved=   3.
 NSaved= 3 IEnMin= 3 EnMin= -648.586290156413     IErMin= 3 ErrMin= 1.35D-02
 ErrMax= 1.35D-02  0.00D+00 EMaxC= 1.00D-01 BMatC= 8.17D-02 BMatP= 1.31D-01
 IDIUse=3 WtCom= 8.65D-01 WtEn= 1.35D-01
 Coeff-Com:  0.127D+00 0.426D+00 0.447D+00
 Coeff-En:   0.000D+00 0.000D+00 0.100D+01
 Coeff:      0.110D+00 0.369D+00 0.522D+00
 Gap=     0.208 Goal=   None    Shift=    0.000
 RMSDP=1.67D-03 MaxDP=4.50D-02 DE=-2.76D-01 OVMax= 8.96D-02

 Cycle   4  Pass 0  IDiag  1:
 E= -648.647654347163     Delta-E=       -0.061364190751 Rises=F Damp=F
 DIIS: error= 7.34D-03 at cycle   4 NSaved=   4.
 NSaved= 4 IEnMin= 4 EnMin= -648.647654347163     IErMin= 4 ErrMin= 7.34D-03
 ErrMax= 7.34D-03  0.00D+00 EMaxC= 1.00D-01 BMatC= 1.46D-02 BMatP= 8.17D-02
 IDIUse=3 WtCom= 9.27D-01 WtEn= 7.34D-02
 Coeff-Com:  0.322D-01 0.822D-01 0.304D+00 0.582D+00
 Coeff-En:   0.000D+00 0.000D+00 0.161D+00 0.839D+00
 Coeff:      0.299D-01 0.762D-01 0.293D+00 0.601D+00
 Gap=     0.194 Goal=   None    Shift=    0.000
 RMSDP=5.50D-04 MaxDP=2.06D-02 DE=-6.14D-02 OVMax= 3.15D-02

 Cycle   5  Pass 0  IDiag  1:
 E= -648.658314323517     Delta-E=       -0.010659976354 Rises=F Damp=F
 DIIS: error= 2.47D-03 at cycle   5 NSaved=   5.
 NSaved= 5 IEnMin= 5 EnMin= -648.658314323517     IErMin= 5 ErrMin= 2.47D-03
 ErrMax= 2.47D-03  0.00D+00 EMaxC= 1.00D-01 BMatC= 1.02D-03 BMatP= 1.46D-02
 IDIUse=3 WtCom= 9.75D-01 WtEn= 2.47D-02
 Coeff-Com:  0.575D-02 0.201D-02 0.119D+00 0.347D+00 0.527D+00
 Coeff-En:   0.000D+00 0.000D+00 0.000D+00 0.000D+00 0.100D+01
 Coeff:      0.561D-02 0.196D-02 0.116D+00 0.338D+00 0.538D+00
 Gap=     0.196 Goal=   None    Shift=    0.000
 RMSDP=1.62D-04 MaxDP=7.08D-03 DE=-1.07D-02 OVMax= 8.02D-03

 Cycle   6  Pass 0  IDiag  1:
 E= -648.659075878335     Delta-E=       -0.000761554818 Rises=F Damp=F
 DIIS: error= 5.77D-04 at cycle   6 NSaved=   6.
 NSaved= 6 IEnMin= 6 EnMin= -648.659075878335     IErMin= 6 ErrMin= 5.77D-04
 ErrMax= 5.77D-04  0.00D+00 EMaxC= 1.00D-01 BMatC= 7.29D-05 BMatP= 1.02D-03
 IDIUse=3 WtCom= 9.94D-01 WtEn= 5.77D-03
 Coeff-Com:  0.110D-02-0.467D-02 0.376D-01 0.120D+00 0.284D+00 0.561D+00
 Coeff-En:   0.000D+00 0.000D+00 0.000D+00 0.000D+00 0.000D+00 0.100D+01
 Coeff:      0.109D-02-0.464D-02 0.374D-01 0.119D+00 0.283D+00 0.564D+00
 Gap=     0.196 Goal=   None    Shift=    0.000
 RMSDP=4.17D-05 MaxDP=1.50D-03 DE=-7.62D-04 OVMax= 1.71D-03

 Cycle   7  Pass 0  IDiag  1:
 E= -648.659129461767     Delta-E=       -0.000053583432 Rises=F Damp=F
 DIIS: error= 1.37D-04 at cycle   7 NSaved=   7.
 NSaved= 7 IEnMin= 7 EnMin= -648.659129461767     IErMin= 7 ErrMin= 1.37D-04
 ErrMax= 1.37D-04  0.00D+00 EMaxC= 1.00D-01 BMatC= 5.94D-06 BMatP= 7.29D-05
 IDIUse=3 WtCom= 9.99D-01 WtEn= 1.37D-03
 Coeff-Com:  0.335D-03-0.307D-02 0.125D-01 0.399D-01 0.121D+00 0.308D+00
 Coeff-Com:  0.521D+00
 Coeff-En:   0.000D+00 0.000D+00 0.000D+00 0.000D+00 0.000D+00 0.000D+00
 Coeff-En:   0.100D+01
 Coeff:      0.335D-03-0.307D-02 0.125D-01 0.398D-01 0.121D+00 0.308D+00
 Coeff:      0.522D+00
 Gap=     0.196 Goal=   None    Shift=    0.000
 RMSDP=1.36D-05 MaxDP=4.51D-04 DE=-5.36D-05 OVMax= 1.06D-03

 Cycle   8  Pass 0  IDiag  1:
 E= -648.659134438310     Delta-E=       -0.000004976543 Rises=F Damp=F
 DIIS: error= 5.71D-05 at cycle   8 NSaved=   8.
 NSaved= 8 IEnMin= 8 EnMin= -648.659134438310     IErMin= 8 ErrMin= 5.71D-05
 ErrMax= 5.71D-05  0.00D+00 EMaxC= 1.00D-01 BMatC= 7.98D-07 BMatP= 5.94D-06
 IDIUse=1 WtCom= 1.00D+00 WtEn= 0.00D+00
 Coeff-Com:  0.150D-03-0.129D-02 0.302D-02 0.849D-02 0.386D-01 0.113D+00
 Coeff-Com:  0.309D+00 0.529D+00
 Coeff:      0.150D-03-0.129D-02 0.302D-02 0.849D-02 0.386D-01 0.113D+00
 Coeff:      0.309D+00 0.529D+00
 Gap=     0.196 Goal=   None    Shift=    0.000
 RMSDP=5.54D-06 MaxDP=1.60D-04 DE=-4.98D-06 OVMax= 4.28D-04

 Initial convergence to 1.0D-05 achieved.  Increase integral accuracy.
 Cycle   9  Pass 1  IDiag  1:
 E= -648.659129202689     Delta-E=        0.000005235621 Rises=F Damp=F
 DIIS: error= 1.67D-05 at cycle   1 NSaved=   1.
 NSaved= 1 IEnMin= 1 EnMin= -648.659129202689     IErMin= 1 ErrMin= 1.67D-05
 ErrMax= 1.67D-05  0.00D+00 EMaxC= 1.00D-01 BMatC= 6.33D-08 BMatP= 6.33D-08
 IDIUse=1 WtCom= 1.00D+00 WtEn= 0.00D+00
 Coeff-Com:  0.100D+01
 Coeff:      0.100D+01
 Gap=     0.196 Goal=   None    Shift=    0.000
 RMSDP=5.54D-06 MaxDP=1.60D-04 DE= 5.24D-06 OVMax= 2.65D-04

 Cycle  10  Pass 1  IDiag  1:
 E= -648.659129031056     Delta-E=        0.000000171633 Rises=F Damp=F
 DIIS: error= 3.40D-05 at cycle   2 NSaved=   2.
 NSaved= 2 IEnMin= 1 EnMin= -648.659129202689     IErMin= 1 ErrMin= 1.67D-05
 ErrMax= 3.40D-05  0.00D+00 EMaxC= 1.00D-01 BMatC= 2.31D-07 BMatP= 6.33D-08
 IDIUse=1 WtCom= 1.00D+00 WtEn= 0.00D+00
 Coeff-Com:  0.664D+00 0.336D+00
 Coeff:      0.664D+00 0.336D+00
 Gap=     0.196 Goal=   None    Shift=    0.000
 RMSDP=2.40D-06 MaxDP=7.25D-05 DE= 1.72D-07 OVMax= 1.82D-04

 Cycle  11  Pass 1  IDiag  1:
 E= -648.659129267375     Delta-E=       -0.000000236319 Rises=F Damp=F
 DIIS: error= 4.38D-06 at cycle   3 NSaved=   3.
 NSaved= 3 IEnMin= 3 EnMin= -648.659129267375     IErMin= 3 ErrMin= 4.38D-06
 ErrMax= 4.38D-06  0.00D+00 EMaxC= 1.00D-01 BMatC= 6.63D-09 BMatP= 6.33D-08
 IDIUse=1 WtCom= 1.00D+00 WtEn= 0.00D+00
 Coeff-Com:  0.313D+00 0.195D+00 0.492D+00
 Coeff:      0.313D+00 0.195D+00 0.492D+00
 Gap=     0.196 Goal=   None    Shift=    0.000
 RMSDP=4.34D-07 MaxDP=1.44D-05 DE=-2.36D-07 OVMax= 2.15D-05

 Cycle  12  Pass 1  IDiag  1:
 E= -648.659129271820     Delta-E=       -0.000000004445 Rises=F Damp=F
 DIIS: error= 1.13D-06 at cycle   4 NSaved=   4.
 NSaved= 4 IEnMin= 4 EnMin= -648.659129271820     IErMin= 4 ErrMin= 1.13D-06
 ErrMax= 1.13D-06  0.00D+00 EMaxC= 1.00D-01 BMatC= 9.17D-10 BMatP= 6.63D-09
 IDIUse=1 WtCom= 1.00D+00 WtEn= 0.00D+00
 Coeff-Com:  0.682D-01 0.601D-01 0.289D+00 0.583D+00
 Coeff:      0.682D-01 0.601D-01 0.289D+00 0.583D+00
 Gap=     0.196 Goal=   None    Shift=    0.000
 RMSDP=1.63D-07 MaxDP=5.28D-06 DE=-4.44D-09 OVMax= 1.19D-05

 Cycle  13  Pass 1  IDiag  1:
 E= -648.659129272488     Delta-E=       -0.000000000668 Rises=F Damp=F
 DIIS: error= 7.39D-07 at cycle   5 NSaved=   5.
 NSaved= 5 IEnMin= 5 EnMin= -648.659129272488     IErMin= 5 ErrMin= 7.39D-07
 ErrMax= 7.39D-07  0.00D+00 EMaxC= 1.00D-01 BMatC= 1.74D-10 BMatP= 9.17D-10
 IDIUse=1 WtCom= 1.00D+00 WtEn= 0.00D+00
 Coeff-Com: -0.299D-02 0.106D-01 0.105D+00 0.366D+00 0.521D+00
 Coeff:     -0.299D-02 0.106D-01 0.105D+00 0.366D+00 0.521D+00
 Gap=     0.196 Goal=   None    Shift=    0.000
 RMSDP=6.77D-08 MaxDP=1.78D-06 DE=-6.68D-10 OVMax= 4.13D-06

 Cycle  14  Pass 1  IDiag  1:
 E= -648.659129272619     Delta-E=       -0.000000000131 Rises=F Damp=F
 DIIS: error= 3.03D-07 at cycle   6 NSaved=   6.
 NSaved= 6 IEnMin= 6 EnMin= -648.659129272619     IErMin= 6 ErrMin= 3.03D-07
 ErrMax= 3.03D-07  0.00D+00 EMaxC= 1.00D-01 BMatC= 1.42D-11 BMatP= 1.74D-10
 IDIUse=1 WtCom= 1.00D+00 WtEn= 0.00D+00
 Coeff-Com: -0.706D-02 0.174D-02 0.363D-01 0.167D+00 0.302D+00 0.500D+00
 Coeff:     -0.706D-02 0.174D-02 0.363D-01 0.167D+00 0.302D+00 0.500D+00
 Gap=     0.196 Goal=   None    Shift=    0.000
 RMSDP=2.06D-08 MaxDP=7.64D-07 DE=-1.31D-10 OVMax= 1.12D-06

 Cycle  15  Pass 1  IDiag  1:
 E= -648.659129272644     Delta-E=       -0.000000000025 Rises=F Damp=F
 DIIS: error= 9.71D-08 at cycle   7 NSaved=   7.
 NSaved= 7 IEnMin= 7 EnMin= -648.659129272644     IErMin= 7 ErrMin= 9.71D-08
 ErrMax= 9.71D-08  0.00D+00 EMaxC= 1.00D-01 BMatC= 1.25D-12 BMatP= 1.42D-11
 IDIUse=1 WtCom= 1.00D+00 WtEn= 0.00D+00
 Coeff-Com: -0.359D-02-0.982D-04 0.745D-02 0.512D-01 0.103D+00 0.280D+00
 Coeff-Com:  0.562D+00
 Coeff:     -0.359D-02-0.982D-04 0.745D-02 0.512D-01 0.103D+00 0.280D+00
 Coeff:      0.562D+00
 Gap=     0.196 Goal=   None    Shift=    0.000
 RMSDP=5.87D-09 MaxDP=2.21D-07 DE=-2.52D-11 OVMax= 3.17D-07

 SCF Done:  E(RB3LYP) =  -648.659129273     A.U. after   15 cycles
            NFock= 15  Conv=0.59D-08     -V/T= 2.0092
 KE= 6.427592023179D+02 PE=-3.055101834153D+03 EE= 9.929762148487D+02
 Leave Link  502 at Mon Aug  7 12:48:46 2023, MaxMem=   458752000 cpu:       110.0
 (Enter /opt/apps/apps/binapps/gaussian/g09d01_em64t/g09/l601.exe)
 Copying SCF densities to generalized density rwf, IOpCl= 0 IROHF=0.

 **********************************************************************

            Population analysis using the SCF density.

 **********************************************************************

 Orbital symmetries:
       Occupied  (A) (A) (A) (A) (A) (A) (A) (A) (A) (A) (A) (A)
                 (A) (A) (A) (A) (A) (A) (A) (A) (A) (A) (A) (A)
                 (A) (A) (A) (A) (A) (A) (A) (A) (A) (A) (A) (A)
                 (A) (A) (A) (A) (A) (A) (A) (A) (A) (A) (A)
       Virtual   (A) (A) (A) (A) (A) (A) (A) (A) (A) (A) (A) (A)
                 (A) (A) (A) (A) (A) (A) (A) (A) (A) (A) (A) (A)
                 (A) (A) (A) (A) (A) (A) (A) (A) (A) (A) (A) (A)
                 (A) (A) (A) (A) (A) (A) (A) (A) (A) (A) (A) (A)
                 (A) (A) (A) (A) (A) (A) (A) (A) (A) (A) (A) (A)
                 (A) (A) (A) (A) (A) (A) (A) (A) (A) (A) (A) (A)
                 (A) (A) (A) (A) (A) (A) (A) (A) (A) (A) (A) (A)
                 (A) (A) (A) (A) (A) (A) (A) (A) (A) (A) (A) (A)
                 (A) (A) (A) (A) (A) (A) (A) (A) (A) (A) (A) (A)
                 (A) (A) (A) (A) (A) (A) (A) (A) (A) (A) (A) (A)
                 (A) (A) (A) (A) (A) (A) (A) (A) (A) (A) (A) (A)
                 (A) (A) (A) (A) (A) (A) (A) (A) (A) (A) (A) (A)
                 (A) (A) (A) (A) (A) (A) (A) (A) (A) (A) (A) (A)
                 (A) (A) (A) (A) (A) (A) (A) (A)
 The electronic state is 1-A.
 Alpha  occ. eigenvalues --  -19.25668 -19.18423 -19.17300 -19.12025 -10.35870
 Alpha  occ. eigenvalues --  -10.31543 -10.29612 -10.23431 -10.23074 -10.22411
 Alpha  occ. eigenvalues --  -10.22380 -10.22143 -10.21453  -1.16028  -1.09361
 Alpha  occ. eigenvalues --   -1.05764  -0.99642  -0.88471  -0.81066  -0.78645
 Alpha  occ. eigenvalues --   -0.75923  -0.69082  -0.66433  -0.60082  -0.59690
 Alpha  occ. eigenvalues --   -0.55157  -0.52939  -0.52513  -0.51312  -0.49377
 Alpha  occ. eigenvalues --   -0.47665  -0.45559  -0.45036  -0.43427  -0.42928
 Alpha  occ. eigenvalues --   -0.42800  -0.42178  -0.41414  -0.38535  -0.37454
 Alpha  occ. eigenvalues --   -0.36612  -0.35298  -0.30246  -0.29920  -0.27469
 Alpha  occ. eigenvalues --   -0.26718  -0.26410
 Alpha virt. eigenvalues --   -0.06781  -0.05154  -0.01878   0.04059   0.06769
 Alpha virt. eigenvalues --    0.08580   0.11390   0.12553   0.13687   0.15026
 Alpha virt. eigenvalues --    0.15606   0.15875   0.16974   0.18083   0.21506
 Alpha virt. eigenvalues --    0.22981   0.24727   0.26410   0.28535   0.29691
 Alpha virt. eigenvalues --    0.31931   0.33392   0.37591   0.38261   0.45930
 Alpha virt. eigenvalues --    0.47301   0.48697   0.50354   0.50979   0.52236
 Alpha virt. eigenvalues --    0.53000   0.54068   0.55173   0.55889   0.56483
 Alpha virt. eigenvalues --    0.57318   0.58424   0.59923   0.60191   0.61373
 Alpha virt. eigenvalues --    0.61736   0.63915   0.65387   0.67163   0.67881
 Alpha virt. eigenvalues --    0.70552   0.73270   0.74866   0.78934   0.80280
 Alpha virt. eigenvalues --    0.80620   0.82364   0.82682   0.84434   0.86906
 Alpha virt. eigenvalues --    0.88186   0.89472   0.90229   0.91288   0.93075
 Alpha virt. eigenvalues --    0.94092   0.94510   0.96575   0.98176   1.01567
 Alpha virt. eigenvalues --    1.03428   1.03973   1.04930   1.06656   1.07515
 Alpha virt. eigenvalues --    1.08243   1.12142   1.13163   1.16418   1.21570
 Alpha virt. eigenvalues --    1.22628   1.25248   1.27166   1.29020   1.31228
 Alpha virt. eigenvalues --    1.34199   1.36564   1.40181   1.42252   1.43245
 Alpha virt. eigenvalues --    1.45250   1.45405   1.47045   1.50174   1.54247
 Alpha virt. eigenvalues --    1.61355   1.63094   1.65738   1.68136   1.70463
 Alpha virt. eigenvalues --    1.70870   1.74696   1.76342   1.76795   1.77547
 Alpha virt. eigenvalues --    1.80092   1.82013   1.84074   1.84570   1.86070
 Alpha virt. eigenvalues --    1.87099   1.88911   1.90115   1.91486   1.93509
 Alpha virt. eigenvalues --    1.95353   1.97982   2.02159   2.02904   2.06718
 Alpha virt. eigenvalues --    2.07452   2.10220   2.13604   2.14725   2.18224
 Alpha virt. eigenvalues --    2.18946   2.20457   2.23950   2.26497   2.28643
 Alpha virt. eigenvalues --    2.32093   2.36994   2.39258   2.45608   2.48286
 Alpha virt. eigenvalues --    2.50514   2.51991   2.53960   2.57753   2.60069
 Alpha virt. eigenvalues --    2.60935   2.62893   2.65190   2.70021   2.73336
 Alpha virt. eigenvalues --    2.77567   2.79766   2.81683   2.88389   2.91193
 Alpha virt. eigenvalues --    2.94658   3.01417   3.05943   3.10952   3.31429
 Alpha virt. eigenvalues --    3.36847   3.91482   3.95277   4.03516   4.06994
 Alpha virt. eigenvalues --    4.09488   4.13071   4.26093   4.26849   4.32165
 Alpha virt. eigenvalues --    4.40983   4.41678   4.51889   4.73405
          Condensed to atoms (all electrons):
               1          2          3          4          5          6
     1  C    5.016090  -0.045089   0.484955  -0.020129   0.000005   0.497934
     2  C   -0.045089   4.983357  -0.029393   0.502190   0.000509  -0.045687
     3  C    0.484955  -0.029393   4.926867   0.507099   0.000000  -0.027612
     4  C   -0.020129   0.502190   0.507099   4.897688  -0.000002  -0.030995
     5  C    0.000005   0.000509   0.000000  -0.000002   5.254919  -0.000414
     6  C    0.497934  -0.045687  -0.027612  -0.030995  -0.000414   5.151308
     7  C   -0.039449   0.510690  -0.039971  -0.008161   0.003460   0.444034
     8  O    0.001917  -0.000058   0.000734  -0.000008   0.000000  -0.091583
     9  O    0.000003   0.002661  -0.000004   0.000100  -0.091031  -0.000361
    10  O    0.005554   0.000147  -0.000026  -0.000006  -0.000105  -0.081096
    11  C   -0.034155   0.005412   0.006273  -0.000441  -0.000053   0.221900
    12  C    0.000038   0.003734  -0.000007   0.000274   0.384736  -0.000323
    13  O    0.003913  -0.055561   0.000117   0.003114  -0.101402  -0.045002
    14  H   -0.000731   0.001589  -0.000043  -0.000020  -0.000104   0.002692
    15  H    0.349081   0.000494  -0.036942   0.003931   0.000000  -0.044043
    16  H    0.000548   0.357855   0.004277  -0.039244  -0.000054   0.003687
    17  H   -0.035755   0.004000   0.364963  -0.040656   0.000000   0.003336
    18  H    0.003876  -0.035564  -0.038779   0.362275   0.000000   0.000720
    19  H    0.000000  -0.000070   0.000000  -0.000002   0.333403   0.000030
    20  H    0.000000   0.000003   0.000000   0.000000   0.373978   0.000025
    21  H    0.000000   0.000009   0.000000   0.000000   0.367100   0.000003
               7          8          9         10         11         12
     1  C   -0.039449   0.001917   0.000003   0.005554  -0.034155   0.000038
     2  C    0.510690  -0.000058   0.002661   0.000147   0.005412   0.003734
     3  C   -0.039971   0.000734  -0.000004  -0.000026   0.006273  -0.000007
     4  C   -0.008161  -0.000008   0.000100  -0.000006  -0.000441   0.000274
     5  C    0.003460   0.000000  -0.091031  -0.000105  -0.000053   0.384736
     6  C    0.444034  -0.091583  -0.000361  -0.081096   0.221900  -0.000323
     7  C    4.751919   0.002682  -0.000710  -0.000024  -0.038202  -0.008598
     8  O    0.002682   8.043938   0.000000  -0.096953   0.581303   0.000002
     9  O   -0.000710   0.000000   8.007607  -0.000003   0.000012   0.551407
    10  O   -0.000024  -0.096953  -0.000003   8.302819   0.276048   0.000567
    11  C   -0.038202   0.581303   0.000012   0.276048   4.477904   0.000152
    12  C   -0.008598   0.000002   0.551407   0.000567   0.000152   4.353270
    13  O    0.155010  -0.000016  -0.060447  -0.029372  -0.004374   0.192600
    14  H   -0.009438   0.004830   0.000105   0.199069  -0.024594  -0.002586
    15  H    0.005590   0.016183   0.000000   0.000352  -0.006316   0.000001
    16  H   -0.036217   0.000000   0.002712   0.000003  -0.000050   0.006584
    17  H    0.000630   0.000000   0.000000   0.000000  -0.000078   0.000000
    18  H    0.003743   0.000000   0.000001   0.000000   0.000006  -0.000010
    19  H   -0.000069   0.000000   0.004265   0.000005  -0.000002  -0.029028
    20  H   -0.000132   0.000000  -0.001104   0.000217  -0.000012  -0.019618
    21  H   -0.000065   0.000000   0.001254   0.000000   0.000000  -0.023453
              13         14         15         16         17         18
     1  C    0.003913  -0.000731   0.349081   0.000548  -0.035755   0.003876
     2  C   -0.055561   0.001589   0.000494   0.357855   0.004000  -0.035564
     3  C    0.000117  -0.000043  -0.036942   0.004277   0.364963  -0.038779
     4  C    0.003114  -0.000020   0.003931  -0.039244  -0.040656   0.362275
     5  C   -0.101402  -0.000104   0.000000  -0.000054   0.000000   0.000000
     6  C   -0.045002   0.002692  -0.044043   0.003687   0.003336   0.000720
     7  C    0.155010  -0.009438   0.005590  -0.036217   0.000630   0.003743
     8  O   -0.000016   0.004830   0.016183   0.000000   0.000000   0.000000
     9  O   -0.060447   0.000105   0.000000   0.002712   0.000000   0.000001
    10  O   -0.029372   0.199069   0.000352   0.000003   0.000000   0.000000
    11  C   -0.004374  -0.024594  -0.006316  -0.000050  -0.000078   0.000006
    12  C    0.192600  -0.002586   0.000001   0.006584   0.000000  -0.000010
    13  O    8.454777   0.045481  -0.000049  -0.007129   0.000002  -0.000050
    14  H    0.045481   0.342198  -0.000110  -0.000013   0.000000   0.000001
    15  H   -0.000049  -0.000110   0.536678   0.000011  -0.004569  -0.000143
    16  H   -0.007129  -0.000013   0.000011   0.546370  -0.000156  -0.004941
    17  H    0.000002   0.000000  -0.004569  -0.000156   0.556876  -0.003307
    18  H   -0.000050   0.000001  -0.000143  -0.004941  -0.003307   0.554984
    19  H    0.004683   0.000128   0.000000  -0.000039   0.000000   0.000000
    20  H    0.000449   0.000952   0.000000   0.000004   0.000000   0.000000
    21  H    0.003152   0.000024   0.000000   0.000012   0.000000   0.000000
              19         20         21
     1  C    0.000000   0.000000   0.000000
     2  C   -0.000070   0.000003   0.000009
     3  C    0.000000   0.000000   0.000000
     4  C   -0.000002   0.000000   0.000000
     5  C    0.333403   0.373978   0.367100
     6  C    0.000030   0.000025   0.000003
     7  C   -0.000069  -0.000132  -0.000065
     8  O    0.000000   0.000000   0.000000
     9  O    0.004265  -0.001104   0.001254
    10  O    0.000005   0.000217   0.000000
    11  C   -0.000002  -0.000012   0.000000
    12  C   -0.029028  -0.019618  -0.023453
    13  O    0.004683   0.000449   0.003152
    14  H    0.000128   0.000952   0.000024
    15  H    0.000000   0.000000   0.000000
    16  H   -0.000039   0.000004   0.000012
    17  H    0.000000   0.000000   0.000000
    18  H    0.000000   0.000000   0.000000
    19  H    0.562497  -0.021349  -0.020586
    20  H   -0.021349   0.473704  -0.023568
    21  H   -0.020586  -0.023568   0.500244
 Mulliken charges:
               1
     1  C   -0.188605
     2  C   -0.161226
     3  C   -0.122508
     4  C   -0.137008
     5  C   -0.524943
     6  C    0.041448
     7  C    0.303279
     8  O   -0.462971
     9  O   -0.416467
    10  O   -0.577194
    11  C    0.539267
    12  C    0.590259
    13  O   -0.559896
    14  H    0.440570
    15  H    0.179852
    16  H    0.165778
    17  H    0.154715
    18  H    0.157190
    19  H    0.166133
    20  H    0.216452
    21  H    0.195875
 Sum of Mulliken charges =   0.00000
 Mulliken charges with hydrogens summed into heavy atoms:
               1
     1  C   -0.008754
     2  C    0.004552
     3  C    0.032207
     4  C    0.020182
     5  C    0.053518
     6  C    0.041448
     7  C    0.303279
     8  O   -0.462971
     9  O   -0.416467
    10  O   -0.136625
    11  C    0.539267
    12  C    0.590259
    13  O   -0.559896
 Electronic spatial extent (au):  <R**2>=           2437.0608
 Charge=              0.0000 electrons
 Dipole moment (field-independent basis, Debye):
    X=              2.3692    Y=             -4.0060    Z=             -1.5489  Tot=              4.9051
 Quadrupole moment (field-independent basis, Debye-Ang):
   XX=            -69.2027   YY=            -80.5690   ZZ=            -75.5664
   XY=             15.7673   XZ=             -4.3685   YZ=              3.2889
 Traceless Quadrupole moment (field-independent basis, Debye-Ang):
   XX=              5.9100   YY=             -5.4563   ZZ=             -0.4537
   XY=             15.7673   XZ=             -4.3685   YZ=              3.2889
 Octapole moment (field-independent basis, Debye-Ang**2):
  XXX=             28.6682  YYY=            -46.5570  ZZZ=              1.3828  XYY=             14.8507
  XXY=             -6.5068  XXZ=             -8.7995  XZZ=              3.7113  YZZ=             11.2341
  YYZ=             -4.8250  XYZ=              8.8651
 Hexadecapole moment (field-independent basis, Debye-Ang**3):
 XXXX=          -1684.3410 YYYY=          -1182.6470 ZZZZ=           -126.0618 XXXY=            105.3147
 XXXZ=            -26.5639 YYYX=             68.5704 YYYZ=             11.7774 ZZZX=              0.5154
 ZZZY=             -3.8831 XXYY=           -524.7292 XXZZ=           -338.1188 YYZZ=           -222.5416
 XXYZ=             10.3069 YYXZ=              2.3875 ZZXY=            -10.1767
 N-N= 7.707072877141D+02 E-N=-3.055101836029D+03  KE= 6.427592023179D+02
 No NMR shielding tensors so no spin-rotation constants.
 Leave Link  601 at Mon Aug  7 12:48:47 2023, MaxMem=   458752000 cpu:         0.2
 (Enter /opt/apps/apps/binapps/gaussian/g09d01_em64t/g09/l602.exe)
 FitSet:  NAtFit=    21 NAtPot=    21 NAtFrz=     0 MDM=    25 TotChg=   0.00000
 Merz-Kollman atomic radii used.

 **********************************************************************

            Electrostatic Properties Using The SCF Density

 **********************************************************************

       Atomic Center    1 is at  -2.354840 -0.468495  0.218141
       Atomic Center    2 is at  -0.014058 -1.820527 -0.339642
       Atomic Center    3 is at  -2.440547 -1.863207  0.063463
       Atomic Center    4 is at  -1.232028 -2.579269 -0.278273
       Atomic Center    5 is at   3.456824  0.691080 -0.274568
       Atomic Center    6 is at  -1.203012  0.301086  0.026437
       Atomic Center    7 is at  -0.027307 -0.444991 -0.231547
       Atomic Center    8 is at  -2.285868  2.414674  0.211359
       Atomic Center    9 is at   2.657629 -1.101652  0.947210
       Atomic Center   10 is at  -0.146336  2.474474 -0.192621
       Atomic Center   11 is at  -1.247582  1.777379  0.117378
       Atomic Center   12 is at   2.405566 -0.274410  0.079115
       Atomic Center   13 is at   1.188953  0.212453 -0.281782
       Atomic Center   14 is at   0.498607  1.658354 -0.211461
       Atomic Center   15 is at  -3.279194  0.119680  0.470937
       Atomic Center   16 is at   0.860295 -2.415982 -0.543820
       Atomic Center   17 is at  -3.392572 -2.361954  0.132045
       Atomic Center   18 is at  -1.244887 -3.631056 -0.365919
       Atomic Center   19 is at   3.350824  0.813398 -1.388754
       Atomic Center   20 is at   3.373680  1.612472  0.199711
       Atomic Center   21 is at   4.460133  0.293634 -0.049089
    1056 points will be used for fitting atomic charges
 Fitting point charges to electrostatic potential
 Charges from ESP fit, RMS=   0.00121 RRMS=   0.06094:
 ESP charges:
               1
     1  C   -0.050689
     2  C   -0.280671
     3  C   -0.160130
     4  C   -0.067234
     5  C   -0.410927
     6  C   -0.166590
     7  C    0.280621
     8  O   -0.475736
     9  O   -0.452696
    10  O   -0.474219
    11  C    0.628904
    12  C    0.679121
    13  O   -0.292035
    14  H    0.283207
    15  H    0.110405
    16  H    0.170642
    17  H    0.147803
    18  H    0.147264
    19  H    0.085100
    20  H    0.173096
    21  H    0.124764
 Sum of ESP charges =   0.00000
 ESP charges with hydrogens summed into heavy atoms:
               1
     1  C    0.059716
     2  C   -0.110029
     3  C   -0.012327
     4  C    0.080030
     5  C   -0.027967
     6  C   -0.166590
     7  C    0.280621
     8  O   -0.475736
     9  O   -0.452696
    10  O   -0.191012
    11  C    0.628904
    12  C    0.679121
    13  O   -0.292035
 Charge=   0.00000 Dipole=     2.3613    -4.0100    -1.5212 Tot=     4.8959
 -----------------------------------------------------------------

              Electrostatic Properties (Atomic Units)

 -----------------------------------------------------------------
    Center     Electric         -------- Electric Field --------
               Potential          X             Y             Z
 -----------------------------------------------------------------
    1 Atom    -14.704218
    2 Atom    -14.703300
    3 Atom    -14.705123
    4 Atom    -14.696581
    5 Atom    -14.711313
    6 Atom    -14.693249
    7 Atom    -14.630488
    8 Atom    -22.347074
    9 Atom    -22.295882
   10 Atom    -22.281159
   11 Atom    -14.610866
   12 Atom    -14.568017
   13 Atom    -22.203561
   14 Atom     -0.949271
   15 Atom     -1.088614
   16 Atom     -1.072009
   17 Atom     -1.081570
   18 Atom     -1.075987
   19 Atom     -1.075741
   20 Atom     -1.068030
   21 Atom     -1.080967
 -----------------------------------------------------------------
 Leave Link  602 at Mon Aug  7 12:48:47 2023, MaxMem=   458752000 cpu:         0.2
 (Enter /opt/apps/apps/binapps/gaussian/g09d01_em64t/g09/l701.exe)
 Compute integral first derivatives.
 ... and contract with generalized density number  0.
 R6Disp: Adding Grimme-D3 dispersion energy 1st derivatives to the gradient.
 Leave Link  701 at Mon Aug  7 12:48:47 2023, MaxMem=   458752000 cpu:         0.2
 (Enter /opt/apps/apps/binapps/gaussian/g09d01_em64t/g09/l702.exe)
 L702 exits ... SP integral derivatives will be done elsewhere.
 Leave Link  702 at Mon Aug  7 12:48:47 2023, MaxMem=   458752000 cpu:         0.0
 (Enter /opt/apps/apps/binapps/gaussian/g09d01_em64t/g09/l703.exe)
 Compute integral first derivatives, UseDBF=F ICtDFT=           0.
 Integral derivatives from FoFJK, PRISM(SPDF).
 Calling FoFJK, ICntrl=      2127 FMM=F ISym2X=0 I1Cent= 0 IOpClX= 0 NMat=1 NMatS=1 NMatT=0.
 FoFJK:  IHMeth= 1 ICntrl=    2127 DoSepK=F KAlg= 0 I1Cent=   0 FoldK=F
 IRaf=         0 NMat=   1 IRICut=       1 DoRegI=T DoRafI=F ISym2E= 0.
 FoFCou: FMM=F IPFlag=           0 FMFlag=      100000 FMFlg1=         800
         NFxFlg=           0 DoJE=F BraDBF=F KetDBF=F FulRan=T
         wScrn=  0.000000 ICntrl=    2127 IOpCl=  0 I1Cent=           0 NGrid=           0
         NMat0=    1 NMatS0=      1 NMatT0=    0 NMatD0=    1 NMtDS0=    0 NMtDT0=    0
 Symmetry not used in FoFCou.
 Leave Link  703 at Mon Aug  7 12:49:17 2023, MaxMem=   458752000 cpu:        29.8
 (Enter /opt/apps/apps/binapps/gaussian/g09d01_em64t/g09/l716.exe)
 Dipole        = 9.32118299D-01-1.57608571D+00-6.09397918D-01
 ***** Axes restored to original set *****
 -------------------------------------------------------------------
 Center     Atomic                   Forces (Hartrees/Bohr)
 Number     Number              X              Y              Z
 -------------------------------------------------------------------
      1        6           0.021368634   -0.031717873   -0.000796107
      2        6           0.024526541   -0.013808767    0.049195098
      3        6          -0.014325901    0.041092062   -0.013372050
      4        6           0.000169465   -0.039564384   -0.059472390
      5        6           0.038350055    0.068087869    0.018727973
      6        6          -0.018777061    0.015831188    0.023626642
      7        6          -0.013987014   -0.006050232    0.016030772
      8        8          -0.011823098   -0.005700371    0.019271622
      9        8           0.043078983   -0.002183021    0.013500003
     10        8          -0.039387968    0.040849349    0.048259901
     11        6           0.049346124   -0.030454244   -0.032941760
     12        6          -0.086381746   -0.025962586   -0.006219470
     13        8           0.022892034    0.005719105   -0.001667951
     14        1           0.012096717   -0.009814920   -0.055228746
     15        1          -0.007350400    0.020461414    0.006342139
     16        1          -0.005892460    0.005384914   -0.010091543
     17        1          -0.000737973   -0.004113414    0.004097631
     18        1          -0.000911765    0.010543342    0.019373222
     19        1          -0.016562747   -0.003805857   -0.012077875
     20        1          -0.002152468   -0.029151656   -0.030662307
     21        1           0.006462048   -0.005641918    0.004105196
 -------------------------------------------------------------------
 Cartesian Forces:  Max     0.086381746 RMS     0.027628110
 Z-matrix is all fixed cartesians, so copy forces.
 Leave Link  716 at Mon Aug  7 12:49:17 2023, MaxMem=   458752000 cpu:         0.0
 (Enter /opt/apps/apps/binapps/gaussian/g09d01_em64t/g09/l103.exe)

 GradGradGradGradGradGradGradGradGradGradGradGradGradGradGradGradGradGrad
 Berny optimization.
 Search for a local minimum.
 Step number   1 out of a maximum of    2
 All quantities printed in internal units (Hartrees-Bohrs-Radians)
 Second derivative matrix not updated -- first step.
 ITU=  0
     Eigenvalues ---    0.00092   0.00135   0.00178   0.00301   0.00553
     Eigenvalues ---    0.00821   0.01117   0.01408   0.01660   0.02061
     Eigenvalues ---    0.02750   0.03231   0.03628   0.03938   0.05325
     Eigenvalues ---    0.05487   0.06667   0.07137   0.07215   0.07552
     Eigenvalues ---    0.08517   0.09428   0.10400   0.11429   0.12393
     Eigenvalues ---    0.13234   0.13809   0.14776   0.15216   0.18637
     Eigenvalues ---    0.21108   0.21874   0.24132   0.27987   0.30238
     Eigenvalues ---    0.32069   0.39357   0.41922   0.45724   0.48527
     Eigenvalues ---    0.62683   0.68558   0.77604   0.86353   0.86826
     Eigenvalues ---    0.95676   1.00810   1.09529   1.15928   1.18209
     Eigenvalues ---    1.32886   1.36219   1.47366   1.56357   1.68070
     Eigenvalues ---    2.20492   2.20950
 Quadratic step=2.640D+00 exceeds max=3.000D-01 adjusted using Lamda=-2.270D-01.
 Angle between NR and scaled steps=  63.39 degrees.
 Angle between quadratic step and forces=  36.64 degrees.
 Linear search not attempted -- first point.
 TrRot= -0.017837  0.006339  0.015457 -0.380506  0.000645  0.380320
 Variable       Old X    -DE/DX   Delta X   Delta X   Delta X     New X
                                 (Linear)    (Quad)   (Total)
    X1       25.09092   0.02137   0.00000   0.02402   0.02501  25.11593
    Y1       19.80090  -0.03172   0.00000  -0.01733  -0.02173  19.77918
    Z1       25.28586  -0.00080   0.00000  -0.00532  -0.00017  25.28568
    X2       22.99673   0.02453   0.00000   0.02020   0.02277  23.01950
    Y2       24.43823  -0.01381   0.00000  -0.00885  -0.01314  24.42509
    Z2       26.43270   0.04920   0.00000   0.04813   0.05564  26.48834
    X3       25.05634  -0.01433   0.00000  -0.00661  -0.00397  25.05237
    Y3       20.51667   0.04109   0.00000   0.02920   0.02422  20.54089
    Z3       27.84411  -0.01337   0.00000  -0.03248  -0.02711  27.81700
    X4       24.05168   0.00017   0.00000  -0.00787  -0.00442  24.04726
    Y4       22.98030  -0.03956   0.00000  -0.04154  -0.04648  22.93382
    Z4       28.46452  -0.05947   0.00000  -0.04699  -0.04045  28.42407
    X5       19.71873   0.03835   0.00000   0.03163   0.03103  19.74975
    Y5       28.15504   0.06809   0.00000   0.07286   0.07073  28.22577
    Z5       20.02936   0.01873   0.00000  -0.02051  -0.01013  20.01923
    X6       24.30880  -0.01878   0.00000  -0.01898  -0.01891  24.28988
    Y6       21.30617   0.01583   0.00000   0.00532   0.00156  21.30773
    Z6       23.25943   0.02363   0.00000   0.02385   0.02986  23.28929
    X7       23.20600  -0.01399   0.00000  -0.03229  -0.03136  23.17465
    Y7       23.64216  -0.00605   0.00000  -0.00318  -0.00690  23.63525
    Z7       23.95850   0.01603   0.00000   0.03732   0.04455  24.00305
    X8       25.77536  -0.01182   0.00000  -0.00595  -0.00833  25.76703
    Y8       18.53539  -0.00570   0.00000  -0.05112  -0.05438  18.48101
    Z8       20.02922   0.01927   0.00000   0.03365   0.03809  20.06731
    X9       18.28852   0.04308   0.00000   0.04750   0.04889  18.33741
    Y9       26.47743  -0.00218   0.00000  -0.01396  -0.01676  26.46067
    Z9       23.80145   0.01350   0.00000   0.07379   0.08460  23.88605
   X10       24.03845  -0.03939   0.00000  -0.04921  -0.05170  23.98675
   Y10       22.03757   0.04085   0.00000   0.03105   0.02843  22.06600
   Z10       18.74069   0.04826   0.00000   0.03956   0.04593  18.78662
   X11       24.60481   0.04935   0.00000   0.08445   0.08275  24.68757
   Y11       20.43657  -0.03045   0.00000   0.00216  -0.00103  20.43554
   Z11       20.61827  -0.03294   0.00000  -0.01327  -0.00771  20.61056
   X12       20.09402  -0.08638   0.00000  -0.10121  -0.10074  19.99328
   Y12       26.70414  -0.02596   0.00000  -0.07399  -0.07671  26.62743
   Z12       22.36948  -0.00622   0.00000  -0.07211  -0.06225  22.30722
   X13       22.10975   0.02289   0.00000   0.01987   0.01995  22.12971
   Y13       25.13324   0.00572   0.00000   0.02152   0.01844  25.15168
   Z13       22.11186  -0.00167   0.00000   0.00297   0.01119  22.12305
   X14       23.14223   0.01210   0.00000  -0.01693  -0.01859  23.12364
   Y14       23.37379  -0.00981   0.00000   0.04947   0.04678  23.42057
   Z14       19.87051  -0.05523   0.00000  -0.11819  -0.11098  19.75953
   X15       25.88287  -0.00735   0.00000  -0.00021   0.00011  25.88298
   Y15       17.90701   0.02046   0.00000   0.02867   0.02426  17.93127
   Z15       24.73736   0.00634   0.00000   0.00863   0.01287  24.75023
   X16       22.18465  -0.00589   0.00000  -0.00735  -0.00413  22.18051
   Y16       26.20873   0.00538   0.00000   0.00975   0.00549  26.21422
   Z16       27.02511  -0.01009   0.00000  -0.01701  -0.00857  27.01654
   X17       25.87434  -0.00074   0.00000  -0.01704  -0.01376  25.86058
   Y17       19.30886  -0.00411   0.00000   0.01297   0.00749  19.31635
   Z17       29.26319   0.00410   0.00000  -0.00689  -0.00230  29.26089
   X18       23.92459  -0.00091   0.00000   0.00192   0.00665  23.93124
   Y18       23.56163   0.01054   0.00000   0.00479  -0.00060  23.56103
   Z18       30.36831   0.01937   0.00000  -0.00296   0.00380  30.37211
   X19       21.55133  -0.01656   0.00000  -0.00694  -0.00752  21.54381
   Y19       29.20562  -0.00381   0.00000   0.02362   0.02123  29.22684
   Z19       19.77530  -0.01208   0.00000  -0.04570  -0.03615  19.73916
   X20       19.33364  -0.00215   0.00000   0.01459   0.01280  19.34645
   Y20       27.06026  -0.02915   0.00000  -0.02031  -0.02198  27.03828
   Z20       18.44417  -0.03066   0.00000  -0.04725  -0.03691  18.40726
   X21       18.16648   0.00646   0.00000   0.01369   0.01347  18.17995
   Y21       29.53024  -0.00564   0.00000   0.01298   0.01109  29.54133
   Z21       20.22867   0.00411   0.00000   0.00454   0.01618  20.24485
         Item               Value     Threshold  Converged?
 Maximum Force            0.086382     0.000450     NO 
 RMS     Force            0.027628     0.000300     NO 
 Maximum Displacement     0.110978     0.001800     NO 
 RMS     Displacement     0.037453     0.001200     NO 
 Predicted change in Energy=-3.661433D-02
 GradGradGradGradGradGradGradGradGradGradGradGradGradGradGradGradGradGrad

 Leave Link  103 at Mon Aug  7 12:49:17 2023, MaxMem=   458752000 cpu:         0.0
 (Enter /opt/apps/apps/binapps/gaussian/g09d01_em64t/g09/l9999.exe)
 1\1\GINC-NODE692\Force\RB3LYP\6-31G(d)\C9H8O4\MBDX6CW3\07-Aug-2023\0\\
 #p b3lyp/6-31g* pop=mk empiricaldispersion=gd3 int(ultrafine) force\\a
 spirin\\0,1\C,13.27754498,10.47818542,13.38069916\C,12.16934443,12.932
 15275,13.98758054\C,13.25924397,10.85695624,14.73446727\C,12.72760034,
 12.16065049,15.06277323\C,10.43470144,14.8990047,10.59908032\C,12.8636
 6224,11.27474189,12.30836034\C,12.28008866,12.51088977,12.67829299\O,1
 3.6397326,9.80850518,10.59900641\O,9.6778661,14.01125073,12.59518504\O
 ,12.72059917,11.66178226,9.91714776\C,13.02030563,10.81456661,10.91071
 963\C,10.63329697,14.13122416,11.83741689\O,11.69997811,13.29993844,11
 .70109391\H,12.24633932,12.36887693,10.51502228\H,13.69662285,9.475981
 ,13.0904448\H,11.73960924,13.86906266,14.30106997\H,13.69211078,10.217
 80849,15.48541427\H,12.66034961,12.46827841,16.07021809\H,11.40447497,
 15.45494795,10.46463966\H,10.23092389,14.31967258,9.76023257\H,9.61328
 626,15.62673211,10.70454955\\Version=ES64L-G09RevD.01\State=1-A\HF=-64
 8.6591293\RMSD=5.873e-09\RMSF=2.763e-02\Dipole=-0.2745088,1.4705086,1.
 2192235\Quadrupole=-4.2533325,1.3670748,2.8862576,2.1080604,8.6108438,
 -8.8965899\PG=C01 [X(C9H8O4)]\\@


 CONFIDENCE: THAT QUIET ASSURED FEELING YOU HAVE
 JUST BEFORE YOU FALL FLAT ON YOUR FACE.
 Job cpu time:       0 days  0 hours  2 minutes 29.1 seconds.
 File lengths (MBytes):  RWF=     20 Int=      0 D2E=      0 Chk=      3 Scr=      1
 Normal termination of Gaussian 09 at Mon Aug  7 12:49:17 2023.
