 Entering Gaussian System, Link 0=/opt/apps/apps/binapps/gaussian/g09d01_em64t/g09/g09
 Initial command:
 /opt/apps/apps/binapps/gaussian/g09d01_em64t/g09/l1.exe "/net/scratch2/mbdx6cw3/aspirin/300K-meta/dft/qm_input/gau_temp_6/Gau-21583.inp" -scrdir="/net/scratch2/mbdx6cw3/aspirin/300K-meta/dft/qm_input/gau_temp_6/"
 Entering Link 1 = /opt/apps/apps/binapps/gaussian/g09d01_em64t/g09/l1.exe PID=     21585.
  
 Copyright (c) 1988,1990,1992,1993,1995,1998,2003,2009,2013,
            Gaussian, Inc.  All Rights Reserved.
  
 This is part of the Gaussian(R) 09 program.  It is based on
 the Gaussian(R) 03 system (copyright 2003, Gaussian, Inc.),
 the Gaussian(R) 98 system (copyright 1998, Gaussian, Inc.),
 the Gaussian(R) 94 system (copyright 1995, Gaussian, Inc.),
 the Gaussian 92(TM) system (copyright 1992, Gaussian, Inc.),
 the Gaussian 90(TM) system (copyright 1990, Gaussian, Inc.),
 the Gaussian 88(TM) system (copyright 1988, Gaussian, Inc.),
 the Gaussian 86(TM) system (copyright 1986, Carnegie Mellon
 University), and the Gaussian 82(TM) system (copyright 1983,
 Carnegie Mellon University). Gaussian is a federally registered
 trademark of Gaussian, Inc.
  
 This software contains proprietary and confidential information,
 including trade secrets, belonging to Gaussian, Inc.
  
 This software is provided under written license and may be
 used, copied, transmitted, or stored only in accord with that
 written license.
  
 The following legend is applicable only to US Government
 contracts under FAR:
  
                    RESTRICTED RIGHTS LEGEND
  
 Use, reproduction and disclosure by the US Government is
 subject to restrictions as set forth in subparagraphs (a)
 and (c) of the Commercial Computer Software - Restricted
 Rights clause in FAR 52.227-19.
  
 Gaussian, Inc.
 340 Quinnipiac St., Bldg. 40, Wallingford CT 06492
  
  
 ---------------------------------------------------------------
 Warning -- This program may not be used in any manner that
 competes with the business of Gaussian, Inc. or will provide
 assistance to any competitor of Gaussian, Inc.  The licensee
 of this program is prohibited from giving any competitor of
 Gaussian, Inc. access to this program.  By using this program,
 the user acknowledges that Gaussian, Inc. is engaged in the
 business of creating and licensing software in the field of
 computational chemistry and represents and warrants to the
 licensee that it is not a competitor of Gaussian, Inc. and that
 it will not use this program in any manner prohibited above.
 ---------------------------------------------------------------
  

 Cite this work as:
 Gaussian 09, Revision D.01,
 M. J. Frisch, G. W. Trucks, H. B. Schlegel, G. E. Scuseria, 
 M. A. Robb, J. R. Cheeseman, G. Scalmani, V. Barone, B. Mennucci, 
 G. A. Petersson, H. Nakatsuji, M. Caricato, X. Li, H. P. Hratchian, 
 A. F. Izmaylov, J. Bloino, G. Zheng, J. L. Sonnenberg, M. Hada, 
 M. Ehara, K. Toyota, R. Fukuda, J. Hasegawa, M. Ishida, T. Nakajima, 
 Y. Honda, O. Kitao, H. Nakai, T. Vreven, J. A. Montgomery, Jr., 
 J. E. Peralta, F. Ogliaro, M. Bearpark, J. J. Heyd, E. Brothers, 
 K. N. Kudin, V. N. Staroverov, T. Keith, R. Kobayashi, J. Normand, 
 K. Raghavachari, A. Rendell, J. C. Burant, S. S. Iyengar, J. Tomasi, 
 M. Cossi, N. Rega, J. M. Millam, M. Klene, J. E. Knox, J. B. Cross, 
 V. Bakken, C. Adamo, J. Jaramillo, R. Gomperts, R. E. Stratmann, 
 O. Yazyev, A. J. Austin, R. Cammi, C. Pomelli, J. W. Ochterski, 
 R. L. Martin, K. Morokuma, V. G. Zakrzewski, G. A. Voth, 
 P. Salvador, J. J. Dannenberg, S. Dapprich, A. D. Daniels, 
 O. Farkas, J. B. Foresman, J. V. Ortiz, J. Cioslowski, 
 and D. J. Fox, Gaussian, Inc., Wallingford CT, 2013.
 
 ******************************************
 Gaussian 09:  ES64L-G09RevD.01 24-Apr-2013
                 7-Aug-2023 
 ******************************************
 %chk=./gau_temp_6/mol_chk.chk
 %mem=3500MB
 -------------------------------------------------------------------
 #p b3lyp/6-31g* pop=mk empiricaldispersion=gd3 int(ultrafine) force
 -------------------------------------------------------------------
 1/10=7,30=1,38=1/1,3;
 2/12=2,17=6,18=5,40=1/2;
 3/5=1,6=6,7=1,11=2,16=1,25=1,30=1,71=1,74=-5,75=-5,124=31/1,2,3;
 4//1;
 5/5=2,38=5/2;
 6/7=2,8=2,9=2,10=2,15=8,20=1,28=1/1,2;
 7/29=1/1,2,3,16;
 1/10=7,30=1/3;
 99//99;
 Leave Link    1 at Mon Aug  7 12:54:56 2023, MaxMem=   458752000 cpu:         0.0
 (Enter /opt/apps/apps/binapps/gaussian/g09d01_em64t/g09/l101.exe)
 -------
 aspirin
 -------
 Symbolic Z-matrix:
 Charge =  0 Multiplicity = 1
 C                     14.26652   12.08135   13.48159 
 C                     11.93908   13.66048   13.49273 
 C                     14.07353   13.04007   14.44283 
 C                     12.89525   13.81987   14.47808 
 C                     9.37019   12.48353   10.11515 
 C                     13.2873   11.90019   12.52114 
 C                     12.10209   12.70793   12.50305 
 O                     14.12513   9.75618   11.79778 
 O                     9.20179   13.3656   12.37758 
 O                     12.90353   10.77284   10.38097 
 C                     13.43863   10.7823   11.5868 
 C                     9.84334   12.88146   11.46592 
 O                     11.17703   12.51733   11.51391 
 H                     12.36684   11.57783   10.41926 
 H                     15.25833   11.56677   13.34319 
 H                     11.05322   14.27176   13.57542 
 H                     14.76879   13.16707   15.3024 
 H                     12.77276   14.4644   15.32046 
 H                     9.67059   11.44521   9.90234 
 H                     8.27731   12.5162   10.0317 
 H                     9.81052   13.09892   9.35482 
 
 NAtoms=     21 NQM=       21 NQMF=       0 NMMI=      0 NMMIF=      0
                NMic=       0 NMicF=      0.
                    Isotopes and Nuclear Properties:
 (Nuclear quadrupole moments (NQMom) in fm**2, nuclear magnetic moments (NMagM)
  in nuclear magnetons)

  Atom         1           2           3           4           5           6           7           8           9          10
 IAtWgt=          12          12          12          12          12          12          12          16          16          16
 AtmWgt=  12.0000000  12.0000000  12.0000000  12.0000000  12.0000000  12.0000000  12.0000000  15.9949146  15.9949146  15.9949146
 NucSpn=           0           0           0           0           0           0           0           0           0           0
 AtZEff=   0.0000000   0.0000000   0.0000000   0.0000000   0.0000000   0.0000000   0.0000000   0.0000000   0.0000000   0.0000000
 NQMom=    0.0000000   0.0000000   0.0000000   0.0000000   0.0000000   0.0000000   0.0000000   0.0000000   0.0000000   0.0000000
 NMagM=    0.0000000   0.0000000   0.0000000   0.0000000   0.0000000   0.0000000   0.0000000   0.0000000   0.0000000   0.0000000
 AtZNuc=   6.0000000   6.0000000   6.0000000   6.0000000   6.0000000   6.0000000   6.0000000   8.0000000   8.0000000   8.0000000

  Atom        11          12          13          14          15          16          17          18          19          20
 IAtWgt=          12          12          16           1           1           1           1           1           1           1
 AtmWgt=  12.0000000  12.0000000  15.9949146   1.0078250   1.0078250   1.0078250   1.0078250   1.0078250   1.0078250   1.0078250
 NucSpn=           0           0           0           1           1           1           1           1           1           1
 AtZEff=   0.0000000   0.0000000   0.0000000   0.0000000   0.0000000   0.0000000   0.0000000   0.0000000   0.0000000   0.0000000
 NQMom=    0.0000000   0.0000000   0.0000000   0.0000000   0.0000000   0.0000000   0.0000000   0.0000000   0.0000000   0.0000000
 NMagM=    0.0000000   0.0000000   0.0000000   2.7928460   2.7928460   2.7928460   2.7928460   2.7928460   2.7928460   2.7928460
 AtZNuc=   6.0000000   6.0000000   8.0000000   1.0000000   1.0000000   1.0000000   1.0000000   1.0000000   1.0000000   1.0000000

  Atom        21
 IAtWgt=           1
 AtmWgt=   1.0078250
 NucSpn=           1
 AtZEff=   0.0000000
 NQMom=    0.0000000
 NMagM=    2.7928460
 AtZNuc=   1.0000000
 Leave Link  101 at Mon Aug  7 12:54:56 2023, MaxMem=   458752000 cpu:         0.1
 (Enter /opt/apps/apps/binapps/gaussian/g09d01_em64t/g09/l103.exe)

 GradGradGradGradGradGradGradGradGradGradGradGradGradGradGradGradGradGrad
 Berny optimization.
 Initialization pass.
 Trust Radius=3.00D-01 FncErr=1.00D-07 GrdErr=1.00D-07
 Number of steps in this run=      2 maximum allowed number of steps=      2.
 GradGradGradGradGradGradGradGradGradGradGradGradGradGradGradGradGradGrad

 Leave Link  103 at Mon Aug  7 12:54:56 2023, MaxMem=   458752000 cpu:         0.0
 (Enter /opt/apps/apps/binapps/gaussian/g09d01_em64t/g09/l202.exe)
                          Input orientation:                          
 ---------------------------------------------------------------------
 Center     Atomic      Atomic             Coordinates (Angstroms)
 Number     Number       Type             X           Y           Z
 ---------------------------------------------------------------------
      1          6           0       14.266521   12.081350   13.481590
      2          6           0       11.939082   13.660479   13.492728
      3          6           0       14.073533   13.040069   14.442828
      4          6           0       12.895249   13.819870   14.478084
      5          6           0        9.370194   12.483528   10.115150
      6          6           0       13.287299   11.900195   12.521139
      7          6           0       12.102087   12.707926   12.503046
      8          8           0       14.125135    9.756176   11.797779
      9          8           0        9.201787   13.365601   12.377580
     10          8           0       12.903531   10.772835   10.380970
     11          6           0       13.438625   10.782304   11.586801
     12          6           0        9.843341   12.881455   11.465923
     13          8           0       11.177027   12.517334   11.513907
     14          1           0       12.366840   11.577832   10.419257
     15          1           0       15.258334   11.566774   13.343185
     16          1           0       11.053215   14.271764   13.575419
     17          1           0       14.768791   13.167074   15.302396
     18          1           0       12.772757   14.464401   15.320461
     19          1           0        9.670586   11.445206    9.902344
     20          1           0        8.277314   12.516197   10.031705
     21          1           0        9.810524   13.098916    9.354821
 ---------------------------------------------------------------------
                    Distance matrix (angstroms):
                    1          2          3          4          5
     1  C    0.000000
     2  C    2.812604   0.000000
     3  C    1.371264   2.417328   0.000000
     4  C    2.428135   1.382240   1.413395   0.000000
     5  C    5.955558   4.403684   6.415600   5.766022   0.000000
     6  C    1.383531   2.420800   2.368621   2.769203   4.633872
     7  C    2.456608   1.383257   2.785619   2.401312   3.635332
     8  O    2.874308   4.784899   4.216978   5.020982   5.734034
     9  O    5.340381   2.970403   5.301427   4.273189   2.434133
    10  O    3.630949   4.353353   4.796660   5.105960   3.934666
    11  C    2.441958   3.763652   3.695606   4.228662   4.648876
    12  C    4.926216   3.017773   5.175099   4.389520   1.485530
    13  O    3.688743   2.408992   4.152298   3.665410   2.285237
    14  H    3.638709   3.737195   4.608694   4.666908   3.145258
    15  H    1.125894   3.927263   2.187137   3.456676   6.777229
    16  H    3.889993   1.079475   3.375172   2.100500   4.243090
    17  H    2.178625   3.394937   1.112821   2.148440   7.517952
    18  H    3.360314   2.163772   2.119193   1.067719   6.526603
    19  H    5.859888   4.790028   6.522693   6.080697   1.101650
    20  H    6.925416   5.166876   7.302643   6.541802   1.096548
    21  H    6.158049   4.687045   6.638111   6.023547   1.072704
                    6          7          8          9         10
     6  C    0.000000
     7  C    1.434394   0.000000
     8  O    2.412890   3.647322   0.000000
     9  O    4.342745   2.976578   6.132168   0.000000
    10  O    2.449192   2.981626   2.129145   4.940830   0.000000
    11  C    1.464776   2.516716   1.252496   5.024894   1.319259
    12  C    3.733256   2.491520   5.311428   1.215364   3.871455
    13  O    2.418393   1.367646   4.049187   2.316693   2.703264
    14  H    2.317126   2.385243   2.882769   4.129009   0.968257
    15  H    2.161460   3.459763   2.636415   6.391396   3.866543
    16  H    3.424467   2.166957   5.743451   2.384059   5.086322
    17  H    3.396349   3.893391   4.932632   6.291701   5.782042
    18  H    3.830941   3.387157   6.033705   4.756021   6.167927
    19  H    4.488398   3.777606   5.127231   3.167725   3.336630
    20  H    5.628205   4.557759   6.703263   2.660689   4.956125
    21  H    4.852882   3.913496   5.979784   3.094956   4.003789
                   11         12         13         14         15
    11  C    0.000000
    12  C    4.164988   0.000000
    13  O    2.851398   1.383332   0.000000
    14  H    1.773344   3.027044   1.869914   0.000000
    15  H    2.647946   5.880022   4.572405   4.112204   0.000000
    16  H    4.671307   2.801201   2.709831   4.352498   5.005389
    17  H    4.611086   6.249814   5.260758   5.669225   2.576649
    18  H    5.285966   5.093590   4.563691   5.702530   4.299297
    19  H    4.180305   2.130125   2.452745   2.748558   6.563314
    20  H    5.662494   2.154723   3.256572   4.213662   7.784725
    21  H    4.848870   2.122525   2.620538   3.159346   6.923376
                   16         17         18         19         20
    16  H    0.000000
    17  H    4.243618   0.000000
    18  H    2.457459   2.380659   0.000000
    19  H    4.836586   7.623456   6.935055   0.000000
    20  H    4.831723   8.387079   7.209400   1.762090   0.000000
    21  H    4.553383   7.743559   6.799134   1.747604   1.774391
                   21
    21  H    0.000000
 Stoichiometry    C9H8O4
 Framework group  C1[X(C9H8O4)]
 Deg. of freedom    57
 Full point group                 C1      NOp   1
 Largest Abelian subgroup         C1      NOp   1
 Largest concise Abelian subgroup C1      NOp   1
                         Standard orientation:                         
 ---------------------------------------------------------------------
 Center     Atomic      Atomic             Coordinates (Angstroms)
 Number     Number       Type             X           Y           Z
 ---------------------------------------------------------------------
      1          6           0       -2.451739   -0.345182   -0.063578
      2          6           0       -0.092378   -1.874177   -0.143139
      3          6           0       -2.503703   -1.715340   -0.081872
      4          6           0       -1.325650   -2.496226   -0.091362
      5          6           0        3.386174    0.825788   -0.191135
      6          6           0       -1.212880    0.270637   -0.075916
      7          6           0       -0.000619   -0.494006   -0.132738
      8          8           0       -2.061912    2.419229    0.620312
      9          8           0        2.744762   -1.388456    0.590352
     10          8           0       -0.182686    2.471834   -0.379188
     11          6           0       -1.166354    1.725722    0.085740
     12          6           0        2.470985   -0.303049    0.117017
     13          8           0        1.200707    0.158043   -0.178607
     14          1           0        0.431629    1.786840   -0.680721
     15          1           0       -3.369678    0.288528   -0.216673
     16          1           0        0.774292   -2.517669   -0.134809
     17          1           0       -3.459096   -2.274590    0.031420
     18          1           0       -1.450338   -3.552029    0.007411
     19          1           0        3.009740    1.752022    0.271490
     20          1           0        4.394348    0.663964    0.208633
     21          1           0        3.439125    1.002724   -1.247819
 ---------------------------------------------------------------------
 Rotational constants (GHZ):      1.0677869      0.7092091      0.4396354
 Leave Link  202 at Mon Aug  7 12:54:56 2023, MaxMem=   458752000 cpu:         0.0
 (Enter /opt/apps/apps/binapps/gaussian/g09d01_em64t/g09/l301.exe)
 Standard basis: 6-31G(d) (6D, 7F)
 Ernie: Thresh=  0.10000D-02 Tol=  0.10000D-05 Strict=F.
 There are   211 symmetry adapted cartesian basis functions of A   symmetry.
 There are   211 symmetry adapted basis functions of A   symmetry.
   211 basis functions,   396 primitive gaussians,   211 cartesian basis functions
    47 alpha electrons       47 beta electrons
       nuclear repulsion energy       771.9007926089 Hartrees.
 IExCor=  402 DFT=T Ex+Corr=B3LYP ExCW=0 ScaHFX=  0.200000
 ScaDFX=  0.800000  0.720000  1.000000  0.810000 ScalE2=  1.000000  1.000000
 IRadAn=      5 IRanWt=     -1 IRanGd=            0 ICorTp=0 IEmpDi=131
 NAtoms=   21 NActive=   21 NUniq=   21 SFac= 1.00D+00 NAtFMM=   60 NAOKFM=F Big=F
 Integral buffers will be    131072 words long.
 Raffenetti 2 integral format.
 Two-electron integral symmetry is turned on.
 R6Disp:  Grimme-D3 Dispersion energy=       -0.0175503725 Hartrees.
 Nuclear repulsion after empirical dispersion term =      771.8832422364 Hartrees.
 Leave Link  301 at Mon Aug  7 12:54:56 2023, MaxMem=   458752000 cpu:         0.0
 (Enter /opt/apps/apps/binapps/gaussian/g09d01_em64t/g09/l302.exe)
 NPDir=0 NMtPBC=     1 NCelOv=     1 NCel=       1 NClECP=     1 NCelD=      1
         NCelK=      1 NCelE2=     1 NClLst=     1 CellRange=     0.0.
 One-electron integrals computed using PRISM.
 NBasis=   211 RedAO= T EigKep=  4.56D-04  NBF=   211
 NBsUse=   211 1.00D-06 EigRej= -1.00D+00 NBFU=   211
 Precomputing XC quadrature grid using
 IXCGrd= 4 IRadAn=           5 IRanWt=          -1 IRanGd=           0 AccXCQ= 0.00D+00.
 Generated NRdTot=       0 NPtTot=           0 NUsed=           0 NTot=          32
 NSgBfM=   210   210   210   210   210 MxSgAt=    21 MxSgA2=    21.
 Leave Link  302 at Mon Aug  7 12:54:57 2023, MaxMem=   458752000 cpu:         0.7
 (Enter /opt/apps/apps/binapps/gaussian/g09d01_em64t/g09/l303.exe)
 DipDrv:  MaxL=1.
 Leave Link  303 at Mon Aug  7 12:54:57 2023, MaxMem=   458752000 cpu:         0.0
 (Enter /opt/apps/apps/binapps/gaussian/g09d01_em64t/g09/l401.exe)
 ExpMin= 1.61D-01 ExpMax= 5.48D+03 ExpMxC= 8.25D+02 IAcc=3 IRadAn=         5 AccDes= 0.00D+00
 Harris functional with IExCor=  402 and IRadAn=       5 diagonalized for initial guess.
 HarFok:  IExCor=  402 AccDes= 0.00D+00 IRadAn=         5 IDoV= 1 UseB2=F ITyADJ=14
 ICtDFT=  3500011 ScaDFX=  1.000000  1.000000  1.000000  1.000000
 FoFCou: FMM=F IPFlag=           0 FMFlag=      100000 FMFlg1=           0
         NFxFlg=           0 DoJE=T BraDBF=F KetDBF=T FulRan=T
         wScrn=  0.000000 ICntrl=     500 IOpCl=  0 I1Cent=   200000004 NGrid=           0
         NMat0=    1 NMatS0=      1 NMatT0=    0 NMatD0=    1 NMtDS0=    0 NMtDT0=    0
 Petite list used in FoFCou.
 Harris En= -648.721020232326    
 JPrj=0 DoOrth=F DoCkMO=F.
 Leave Link  401 at Mon Aug  7 12:55:05 2023, MaxMem=   458752000 cpu:         8.2
 (Enter /opt/apps/apps/binapps/gaussian/g09d01_em64t/g09/l502.exe)
 Closed shell SCF:
 Using DIIS extrapolation, IDIIS=  1040.
 Integral symmetry usage will be decided dynamically.
 Keep R1 ints in memory in canonical form, NReq=255049085.
 IVT=      154966 IEndB=      154966 NGot=   458752000 MDV=   208466874
 LenX=   208466874 LenY=   208421912
 Requested convergence on RMS density matrix=1.00D-08 within 128 cycles.
 Requested convergence on MAX density matrix=1.00D-06.
 Requested convergence on             energy=1.00D-06.
 No special actions if energy rises.
 FoFCou: FMM=F IPFlag=           0 FMFlag=           0 FMFlg1=           0
         NFxFlg=           0 DoJE=F BraDBF=F KetDBF=F FulRan=T
         wScrn=  0.000000 ICntrl=     600 IOpCl=  0 I1Cent=           0 NGrid=           0
         NMat0=    1 NMatS0=  22366 NMatT0=    0 NMatD0=    1 NMtDS0=    0 NMtDT0=    0
 Symmetry not used in FoFCou.
 Integral accuracy reduced to 1.0D-05 until final iterations.

 Cycle   1  Pass 0  IDiag  1:
 E= -648.304090386829    
 DIIS: error= 2.30D-02 at cycle   1 NSaved=   1.
 NSaved= 1 IEnMin= 1 EnMin= -648.304090386829     IErMin= 1 ErrMin= 2.30D-02
 ErrMax= 2.30D-02  0.00D+00 EMaxC= 1.00D-01 BMatC= 4.32D-01 BMatP= 4.32D-01
 IDIUse=3 WtCom= 7.70D-01 WtEn= 2.30D-01
 Coeff-Com:  0.100D+01
 Coeff-En:   0.100D+01
 Coeff:      0.100D+01
 Gap=     0.222 Goal=   None    Shift=    0.000
 GapD=    0.222 DampG=1.000 DampE=0.500 DampFc=0.5000 IDamp=-1.
 Damping current iteration by 5.00D-01
 RMSDP=8.18D-03 MaxDP=2.34D-01              OVMax= 3.37D-01

 Cycle   2  Pass 0  IDiag  1:
 E= -648.325768012930     Delta-E=       -0.021677626101 Rises=F Damp=T
 DIIS: error= 1.73D-02 at cycle   2 NSaved=   2.
 NSaved= 2 IEnMin= 2 EnMin= -648.325768012930     IErMin= 2 ErrMin= 1.73D-02
 ErrMax= 1.73D-02  0.00D+00 EMaxC= 1.00D-01 BMatC= 1.29D-01 BMatP= 4.32D-01
 IDIUse=3 WtCom= 8.27D-01 WtEn= 1.73D-01
 Coeff-Com:  0.312D+00 0.688D+00
 Coeff-En:   0.476D+00 0.524D+00
 Coeff:      0.340D+00 0.660D+00
 Gap=     0.189 Goal=   None    Shift=    0.000
 RMSDP=2.98D-03 MaxDP=8.55D-02 DE=-2.17D-02 OVMax= 3.02D-01

 Cycle   3  Pass 0  IDiag  1:
 E= -648.600959539696     Delta-E=       -0.275191526765 Rises=F Damp=F
 DIIS: error= 1.38D-02 at cycle   3 NSaved=   3.
 NSaved= 3 IEnMin= 3 EnMin= -648.600959539696     IErMin= 3 ErrMin= 1.38D-02
 ErrMax= 1.38D-02  0.00D+00 EMaxC= 1.00D-01 BMatC= 8.74D-02 BMatP= 1.29D-01
 IDIUse=3 WtCom= 8.62D-01 WtEn= 1.38D-01
 Coeff-Com:  0.128D+00 0.434D+00 0.438D+00
 Coeff-En:   0.000D+00 0.000D+00 0.100D+01
 Coeff:      0.110D+00 0.374D+00 0.516D+00
 Gap=     0.208 Goal=   None    Shift=    0.000
 RMSDP=1.77D-03 MaxDP=5.24D-02 DE=-2.75D-01 OVMax= 9.30D-02

 Cycle   4  Pass 0  IDiag  1:
 E= -648.667036257602     Delta-E=       -0.066076717906 Rises=F Damp=F
 DIIS: error= 6.67D-03 at cycle   4 NSaved=   4.
 NSaved= 4 IEnMin= 4 EnMin= -648.667036257602     IErMin= 4 ErrMin= 6.67D-03
 ErrMax= 6.67D-03  0.00D+00 EMaxC= 1.00D-01 BMatC= 1.51D-02 BMatP= 8.74D-02
 IDIUse=3 WtCom= 9.33D-01 WtEn= 6.67D-02
 Coeff-Com:  0.320D-01 0.782D-01 0.299D+00 0.591D+00
 Coeff-En:   0.000D+00 0.000D+00 0.155D+00 0.845D+00
 Coeff:      0.298D-01 0.730D-01 0.289D+00 0.608D+00
 Gap=     0.190 Goal=   None    Shift=    0.000
 RMSDP=5.75D-04 MaxDP=2.00D-02 DE=-6.61D-02 OVMax= 3.50D-02

 Cycle   5  Pass 0  IDiag  1:
 E= -648.677996623090     Delta-E=       -0.010960365488 Rises=F Damp=F
 DIIS: error= 1.89D-03 at cycle   5 NSaved=   5.
 NSaved= 5 IEnMin= 5 EnMin= -648.677996623090     IErMin= 5 ErrMin= 1.89D-03
 ErrMax= 1.89D-03  0.00D+00 EMaxC= 1.00D-01 BMatC= 9.87D-04 BMatP= 1.51D-02
 IDIUse=3 WtCom= 9.81D-01 WtEn= 1.89D-02
 Coeff-Com:  0.629D-02 0.159D-02 0.121D+00 0.350D+00 0.521D+00
 Coeff-En:   0.000D+00 0.000D+00 0.000D+00 0.000D+00 0.100D+01
 Coeff:      0.618D-02 0.156D-02 0.118D+00 0.344D+00 0.530D+00
 Gap=     0.187 Goal=   None    Shift=    0.000
 RMSDP=1.72D-04 MaxDP=6.69D-03 DE=-1.10D-02 OVMax= 9.91D-03

 Cycle   6  Pass 0  IDiag  1:
 E= -648.678717019438     Delta-E=       -0.000720396349 Rises=F Damp=F
 DIIS: error= 6.15D-04 at cycle   6 NSaved=   6.
 NSaved= 6 IEnMin= 6 EnMin= -648.678717019438     IErMin= 6 ErrMin= 6.15D-04
 ErrMax= 6.15D-04  0.00D+00 EMaxC= 1.00D-01 BMatC= 1.15D-04 BMatP= 9.87D-04
 IDIUse=3 WtCom= 9.94D-01 WtEn= 6.15D-03
 Coeff-Com:  0.161D-02-0.450D-02 0.460D-01 0.146D+00 0.320D+00 0.491D+00
 Coeff-En:   0.000D+00 0.000D+00 0.000D+00 0.000D+00 0.683D-01 0.932D+00
 Coeff:      0.160D-02-0.447D-02 0.458D-01 0.145D+00 0.319D+00 0.494D+00
 Gap=     0.189 Goal=   None    Shift=    0.000
 RMSDP=5.37D-05 MaxDP=1.81D-03 DE=-7.20D-04 OVMax= 2.95D-03

 Cycle   7  Pass 0  IDiag  1:
 E= -648.678800555436     Delta-E=       -0.000083535997 Rises=F Damp=F
 DIIS: error= 1.59D-04 at cycle   7 NSaved=   7.
 NSaved= 7 IEnMin= 7 EnMin= -648.678800555436     IErMin= 7 ErrMin= 1.59D-04
 ErrMax= 1.59D-04  0.00D+00 EMaxC= 1.00D-01 BMatC= 1.47D-05 BMatP= 1.15D-04
 IDIUse=3 WtCom= 9.98D-01 WtEn= 1.59D-03
 Coeff-Com:  0.396D-03-0.350D-02 0.157D-01 0.511D-01 0.150D+00 0.314D+00
 Coeff-Com:  0.473D+00
 Coeff-En:   0.000D+00 0.000D+00 0.000D+00 0.000D+00 0.000D+00 0.430D-01
 Coeff-En:   0.957D+00
 Coeff:      0.395D-03-0.349D-02 0.156D-01 0.510D-01 0.149D+00 0.313D+00
 Coeff:      0.474D+00
 Gap=     0.188 Goal=   None    Shift=    0.000
 RMSDP=1.82D-05 MaxDP=5.75D-04 DE=-8.35D-05 OVMax= 7.43D-04

 Cycle   8  Pass 0  IDiag  1:
 E= -648.678811097848     Delta-E=       -0.000010542412 Rises=F Damp=F
 DIIS: error= 6.16D-05 at cycle   8 NSaved=   8.
 NSaved= 8 IEnMin= 8 EnMin= -648.678811097848     IErMin= 8 ErrMin= 6.16D-05
 ErrMax= 6.16D-05  0.00D+00 EMaxC= 1.00D-01 BMatC= 1.23D-06 BMatP= 1.47D-05
 IDIUse=1 WtCom= 1.00D+00 WtEn= 0.00D+00
 Coeff-Com:  0.164D-03-0.155D-02 0.418D-02 0.127D-01 0.523D-01 0.121D+00
 Coeff-Com:  0.273D+00 0.538D+00
 Coeff:      0.164D-03-0.155D-02 0.418D-02 0.127D-01 0.523D-01 0.121D+00
 Coeff:      0.273D+00 0.538D+00
 Gap=     0.189 Goal=   None    Shift=    0.000
 RMSDP=5.70D-06 MaxDP=1.88D-04 DE=-1.05D-05 OVMax= 2.35D-04

 Initial convergence to 1.0D-05 achieved.  Increase integral accuracy.
 Cycle   9  Pass 1  IDiag  1:
 E= -648.678808048131     Delta-E=        0.000003049717 Rises=F Damp=F
 DIIS: error= 1.76D-05 at cycle   1 NSaved=   1.
 NSaved= 1 IEnMin= 1 EnMin= -648.678808048131     IErMin= 1 ErrMin= 1.76D-05
 ErrMax= 1.76D-05  0.00D+00 EMaxC= 1.00D-01 BMatC= 1.08D-07 BMatP= 1.08D-07
 IDIUse=1 WtCom= 1.00D+00 WtEn= 0.00D+00
 Coeff-Com:  0.100D+01
 Coeff:      0.100D+01
 Gap=     0.189 Goal=   None    Shift=    0.000
 RMSDP=5.70D-06 MaxDP=1.88D-04 DE= 3.05D-06 OVMax= 2.09D-04

 Cycle  10  Pass 1  IDiag  1:
 E= -648.678807803101     Delta-E=        0.000000245029 Rises=F Damp=F
 DIIS: error= 3.80D-05 at cycle   2 NSaved=   2.
 NSaved= 2 IEnMin= 1 EnMin= -648.678808048131     IErMin= 1 ErrMin= 1.76D-05
 ErrMax= 3.80D-05  0.00D+00 EMaxC= 1.00D-01 BMatC= 3.99D-07 BMatP= 1.08D-07
 IDIUse=1 WtCom= 1.00D+00 WtEn= 0.00D+00
 Coeff-Com:  0.662D+00 0.338D+00
 Coeff:      0.662D+00 0.338D+00
 Gap=     0.189 Goal=   None    Shift=    0.000
 RMSDP=2.60D-06 MaxDP=1.08D-04 DE= 2.45D-07 OVMax= 1.46D-04

 Cycle  11  Pass 1  IDiag  1:
 E= -648.678808145388     Delta-E=       -0.000000342287 Rises=F Damp=F
 DIIS: error= 3.84D-06 at cycle   3 NSaved=   3.
 NSaved= 3 IEnMin= 3 EnMin= -648.678808145388     IErMin= 3 ErrMin= 3.84D-06
 ErrMax= 3.84D-06  0.00D+00 EMaxC= 1.00D-01 BMatC= 5.17D-09 BMatP= 1.08D-07
 IDIUse=1 WtCom= 1.00D+00 WtEn= 0.00D+00
 Coeff-Com:  0.294D+00 0.175D+00 0.531D+00
 Coeff:      0.294D+00 0.175D+00 0.531D+00
 Gap=     0.189 Goal=   None    Shift=    0.000
 RMSDP=4.28D-07 MaxDP=1.62D-05 DE=-3.42D-07 OVMax= 1.89D-05

 Cycle  12  Pass 1  IDiag  1:
 E= -648.678808148419     Delta-E=       -0.000000003031 Rises=F Damp=F
 DIIS: error= 1.90D-06 at cycle   4 NSaved=   4.
 NSaved= 4 IEnMin= 4 EnMin= -648.678808148419     IErMin= 4 ErrMin= 1.90D-06
 ErrMax= 1.90D-06  0.00D+00 EMaxC= 1.00D-01 BMatC= 1.22D-09 BMatP= 5.17D-09
 IDIUse=1 WtCom= 1.00D+00 WtEn= 0.00D+00
 Coeff-Com:  0.636D-01 0.495D-01 0.340D+00 0.547D+00
 Coeff:      0.636D-01 0.495D-01 0.340D+00 0.547D+00
 Gap=     0.189 Goal=   None    Shift=    0.000
 RMSDP=2.10D-07 MaxDP=5.74D-06 DE=-3.03D-09 OVMax= 1.45D-05

 Cycle  13  Pass 1  IDiag  1:
 E= -648.678808149381     Delta-E=       -0.000000000963 Rises=F Damp=F
 DIIS: error= 7.48D-07 at cycle   5 NSaved=   5.
 NSaved= 5 IEnMin= 5 EnMin= -648.678808149381     IErMin= 5 ErrMin= 7.48D-07
 ErrMax= 7.48D-07  0.00D+00 EMaxC= 1.00D-01 BMatC= 2.03D-10 BMatP= 1.22D-09
 IDIUse=1 WtCom= 1.00D+00 WtEn= 0.00D+00
 Coeff-Com: -0.226D-02 0.654D-02 0.134D+00 0.354D+00 0.508D+00
 Coeff:     -0.226D-02 0.654D-02 0.134D+00 0.354D+00 0.508D+00
 Gap=     0.189 Goal=   None    Shift=    0.000
 RMSDP=7.96D-08 MaxDP=2.72D-06 DE=-9.63D-10 OVMax= 5.40D-06

 Cycle  14  Pass 1  IDiag  1:
 E= -648.678808149589     Delta-E=       -0.000000000208 Rises=F Damp=F
 DIIS: error= 1.55D-07 at cycle   6 NSaved=   6.
 NSaved= 6 IEnMin= 6 EnMin= -648.678808149589     IErMin= 6 ErrMin= 1.55D-07
 ErrMax= 1.55D-07  0.00D+00 EMaxC= 1.00D-01 BMatC= 1.21D-11 BMatP= 2.03D-10
 IDIUse=1 WtCom= 1.00D+00 WtEn= 0.00D+00
 Coeff-Com: -0.731D-02-0.104D-02 0.403D-01 0.143D+00 0.272D+00 0.553D+00
 Coeff:     -0.731D-02-0.104D-02 0.403D-01 0.143D+00 0.272D+00 0.553D+00
 Gap=     0.189 Goal=   None    Shift=    0.000
 RMSDP=1.97D-08 MaxDP=8.17D-07 DE=-2.08D-10 OVMax= 1.19D-06

 Cycle  15  Pass 1  IDiag  1:
 E= -648.678808149596     Delta-E=       -0.000000000007 Rises=F Damp=F
 DIIS: error= 9.47D-08 at cycle   7 NSaved=   7.
 NSaved= 7 IEnMin= 7 EnMin= -648.678808149596     IErMin= 7 ErrMin= 9.47D-08
 ErrMax= 9.47D-08  0.00D+00 EMaxC= 1.00D-01 BMatC= 2.26D-12 BMatP= 1.21D-11
 IDIUse=1 WtCom= 1.00D+00 WtEn= 0.00D+00
 Coeff-Com: -0.454D-02-0.108D-02 0.152D-01 0.653D-01 0.134D+00 0.361D+00
 Coeff-Com:  0.430D+00
 Coeff:     -0.454D-02-0.108D-02 0.152D-01 0.653D-01 0.134D+00 0.361D+00
 Coeff:      0.430D+00
 Gap=     0.189 Goal=   None    Shift=    0.000
 RMSDP=8.33D-09 MaxDP=3.59D-07 DE=-7.28D-12 OVMax= 4.87D-07

 SCF Done:  E(RB3LYP) =  -648.678808150     A.U. after   15 cycles
            NFock= 15  Conv=0.83D-08     -V/T= 2.0089
 KE= 6.429481753986D+02 PE=-3.057839016831D+03 EE= 9.943287910465D+02
 Leave Link  502 at Mon Aug  7 12:57:16 2023, MaxMem=   458752000 cpu:       130.3
 (Enter /opt/apps/apps/binapps/gaussian/g09d01_em64t/g09/l601.exe)
 Copying SCF densities to generalized density rwf, IOpCl= 0 IROHF=0.

 **********************************************************************

            Population analysis using the SCF density.

 **********************************************************************

 Orbital symmetries:
       Occupied  (A) (A) (A) (A) (A) (A) (A) (A) (A) (A) (A) (A)
                 (A) (A) (A) (A) (A) (A) (A) (A) (A) (A) (A) (A)
                 (A) (A) (A) (A) (A) (A) (A) (A) (A) (A) (A) (A)
                 (A) (A) (A) (A) (A) (A) (A) (A) (A) (A) (A)
       Virtual   (A) (A) (A) (A) (A) (A) (A) (A) (A) (A) (A) (A)
                 (A) (A) (A) (A) (A) (A) (A) (A) (A) (A) (A) (A)
                 (A) (A) (A) (A) (A) (A) (A) (A) (A) (A) (A) (A)
                 (A) (A) (A) (A) (A) (A) (A) (A) (A) (A) (A) (A)
                 (A) (A) (A) (A) (A) (A) (A) (A) (A) (A) (A) (A)
                 (A) (A) (A) (A) (A) (A) (A) (A) (A) (A) (A) (A)
                 (A) (A) (A) (A) (A) (A) (A) (A) (A) (A) (A) (A)
                 (A) (A) (A) (A) (A) (A) (A) (A) (A) (A) (A) (A)
                 (A) (A) (A) (A) (A) (A) (A) (A) (A) (A) (A) (A)
                 (A) (A) (A) (A) (A) (A) (A) (A) (A) (A) (A) (A)
                 (A) (A) (A) (A) (A) (A) (A) (A) (A) (A) (A) (A)
                 (A) (A) (A) (A) (A) (A) (A) (A) (A) (A) (A) (A)
                 (A) (A) (A) (A) (A) (A) (A) (A) (A) (A) (A) (A)
                 (A) (A) (A) (A) (A) (A) (A) (A)
 The electronic state is 1-A.
 Alpha  occ. eigenvalues --  -19.24449 -19.18913 -19.17897 -19.11065 -10.36260
 Alpha  occ. eigenvalues --  -10.31123 -10.29188 -10.22956 -10.22163 -10.21859
 Alpha  occ. eigenvalues --  -10.21619 -10.21247 -10.21138  -1.14775  -1.10829
 Alpha  occ. eigenvalues --   -1.06200  -0.98096  -0.88713  -0.81342  -0.78835
 Alpha  occ. eigenvalues --   -0.75964  -0.68494  -0.66190  -0.60257  -0.59848
 Alpha  occ. eigenvalues --   -0.55110  -0.52550  -0.52447  -0.51239  -0.48786
 Alpha  occ. eigenvalues --   -0.47769  -0.45584  -0.44906  -0.43302  -0.43167
 Alpha  occ. eigenvalues --   -0.42930  -0.41647  -0.40345  -0.38909  -0.37828
 Alpha  occ. eigenvalues --   -0.36627  -0.35325  -0.30846  -0.29739  -0.27722
 Alpha  occ. eigenvalues --   -0.26120  -0.25008
 Alpha virt. eigenvalues --   -0.06136  -0.04015  -0.00523   0.04481   0.06950
 Alpha virt. eigenvalues --    0.08078   0.11233   0.12975   0.13767   0.14585
 Alpha virt. eigenvalues --    0.14779   0.15961   0.17622   0.17923   0.21784
 Alpha virt. eigenvalues --    0.23172   0.25105   0.26480   0.29600   0.30230
 Alpha virt. eigenvalues --    0.31859   0.33192   0.38747   0.40782   0.45444
 Alpha virt. eigenvalues --    0.47982   0.49011   0.50343   0.51991   0.53035
 Alpha virt. eigenvalues --    0.53575   0.54818   0.55434   0.56343   0.56590
 Alpha virt. eigenvalues --    0.58160   0.59964   0.60060   0.61021   0.62280
 Alpha virt. eigenvalues --    0.62682   0.64322   0.64616   0.67379   0.69485
 Alpha virt. eigenvalues --    0.72669   0.72772   0.74747   0.78116   0.79510
 Alpha virt. eigenvalues --    0.81110   0.81899   0.82663   0.84205   0.86203
 Alpha virt. eigenvalues --    0.87533   0.88399   0.89691   0.91506   0.93013
 Alpha virt. eigenvalues --    0.94466   0.95824   0.96624   0.98649   0.99709
 Alpha virt. eigenvalues --    1.00831   1.03770   1.06748   1.08294   1.09864
 Alpha virt. eigenvalues --    1.10964   1.12542   1.13603   1.17557   1.19830
 Alpha virt. eigenvalues --    1.22108   1.23854   1.25760   1.30813   1.32449
 Alpha virt. eigenvalues --    1.34552   1.36062   1.38785   1.40577   1.44876
 Alpha virt. eigenvalues --    1.45734   1.47482   1.48921   1.52135   1.52926
 Alpha virt. eigenvalues --    1.55823   1.63236   1.64836   1.65563   1.67869
 Alpha virt. eigenvalues --    1.70460   1.74566   1.77628   1.78255   1.79649
 Alpha virt. eigenvalues --    1.79821   1.81871   1.84377   1.85172   1.86328
 Alpha virt. eigenvalues --    1.88652   1.90290   1.91433   1.92027   1.92749
 Alpha virt. eigenvalues --    1.95260   1.97983   2.02627   2.04573   2.08073
 Alpha virt. eigenvalues --    2.11619   2.12341   2.14773   2.15280   2.18368
 Alpha virt. eigenvalues --    2.22061   2.22277   2.26332   2.28949   2.29801
 Alpha virt. eigenvalues --    2.35005   2.36792   2.39710   2.41238   2.48323
 Alpha virt. eigenvalues --    2.51590   2.52585   2.53947   2.58254   2.60410
 Alpha virt. eigenvalues --    2.63061   2.66167   2.69247   2.70950   2.73019
 Alpha virt. eigenvalues --    2.76691   2.79442   2.82898   2.87876   2.91880
 Alpha virt. eigenvalues --    2.95443   2.99627   3.04650   3.13920   3.31672
 Alpha virt. eigenvalues --    3.41555   3.90216   4.01996   4.05828   4.07236
 Alpha virt. eigenvalues --    4.09713   4.13750   4.23146   4.26033   4.31879
 Alpha virt. eigenvalues --    4.40984   4.45435   4.55594   4.77950
          Condensed to atoms (all electrons):
               1          2          3          4          5          6
     1  C    4.950973  -0.047539   0.475762  -0.027983   0.000005   0.517668
     2  C   -0.047539   5.012691  -0.022086   0.510125   0.000456  -0.049017
     3  C    0.475762  -0.022086   4.944582   0.524474   0.000000  -0.022796
     4  C   -0.027983   0.510125   0.524474   4.869990   0.000004  -0.035351
     5  C    0.000005   0.000456   0.000000   0.000004   5.258379  -0.000334
     6  C    0.517668  -0.049017  -0.022796  -0.035351  -0.000334   5.163823
     7  C   -0.035612   0.500951  -0.045163  -0.015156   0.003679   0.471159
     8  O    0.008294  -0.000072   0.000933  -0.000007   0.000000  -0.095256
     9  O    0.000000  -0.001711  -0.000005   0.000398  -0.064893   0.000043
    10  O    0.004569  -0.000002  -0.000053  -0.000010  -0.000144  -0.083523
    11  C   -0.035131   0.006646   0.008171  -0.000224  -0.000104   0.210549
    12  C   -0.000002  -0.000031   0.000002   0.000341   0.372775   0.001644
    13  O    0.003401  -0.058666  -0.000035   0.003527  -0.107746  -0.055813
    14  H   -0.000470   0.000471  -0.000082   0.000015   0.000544   0.004012
    15  H    0.359571   0.000164  -0.038334   0.003951   0.000000  -0.039488
    16  H    0.000529   0.352195   0.004803  -0.040698   0.000202   0.004368
    17  H   -0.036811   0.004879   0.356711  -0.041449   0.000000   0.003401
    18  H    0.005033  -0.038867  -0.041404   0.364447   0.000000   0.000473
    19  H    0.000000  -0.000011   0.000000   0.000000   0.357106   0.000006
    20  H    0.000000   0.000006   0.000000   0.000000   0.362344   0.000003
    21  H    0.000000  -0.000028   0.000000  -0.000001   0.359640   0.000013
               7          8          9         10         11         12
     1  C   -0.035612   0.008294   0.000000   0.004569  -0.035131  -0.000002
     2  C    0.500951  -0.000072  -0.001711  -0.000002   0.006646  -0.000031
     3  C   -0.045163   0.000933  -0.000005  -0.000053   0.008171   0.000002
     4  C   -0.015156  -0.000007   0.000398  -0.000010  -0.000224   0.000341
     5  C    0.003679   0.000000  -0.064893  -0.000144  -0.000104   0.372775
     6  C    0.471159  -0.095256   0.000043  -0.083523   0.210549   0.001644
     7  C    4.670150   0.001095  -0.001712  -0.002396  -0.035140  -0.012814
     8  O    0.001095   8.091050   0.000000  -0.113791   0.575564   0.000001
     9  O   -0.001712   0.000000   7.971302  -0.000004  -0.000001   0.576427
    10  O   -0.002396  -0.113791  -0.000004   8.249714   0.292516  -0.000203
    11  C   -0.035140   0.575564  -0.000001   0.292516   4.512484   0.000011
    12  C   -0.012814   0.000001   0.576427  -0.000203   0.000011   4.303649
    13  O    0.199451  -0.000040  -0.065704  -0.014549  -0.002047   0.204950
    14  H   -0.003889   0.007030   0.000133   0.205142  -0.025516  -0.000928
    15  H    0.004090   0.008170   0.000000   0.000278  -0.005994   0.000000
    16  H   -0.033551   0.000000   0.012645   0.000003  -0.000072   0.002902
    17  H    0.000902   0.000002   0.000000   0.000000  -0.000118   0.000000
    18  H    0.003912   0.000000   0.000000   0.000000   0.000004  -0.000008
    19  H   -0.000044  -0.000002   0.001116   0.001217   0.000062  -0.023015
    20  H   -0.000063   0.000000   0.001487   0.000002   0.000001  -0.023348
    21  H    0.000004   0.000000   0.000764  -0.000018  -0.000003  -0.020164
              13         14         15         16         17         18
     1  C    0.003401  -0.000470   0.359571   0.000529  -0.036811   0.005033
     2  C   -0.058666   0.000471   0.000164   0.352195   0.004879  -0.038867
     3  C   -0.000035  -0.000082  -0.038334   0.004803   0.356711  -0.041404
     4  C    0.003527   0.000015   0.003951  -0.040698  -0.041449   0.364447
     5  C   -0.107746   0.000544   0.000000   0.000202   0.000000   0.000000
     6  C   -0.055813   0.004012  -0.039488   0.004368   0.003401   0.000473
     7  C    0.199451  -0.003889   0.004090  -0.033551   0.000902   0.003912
     8  O   -0.000040   0.007030   0.008170   0.000000   0.000002   0.000000
     9  O   -0.065704   0.000133   0.000000   0.012645   0.000000   0.000000
    10  O   -0.014549   0.205142   0.000278   0.000003   0.000000   0.000000
    11  C   -0.002047  -0.025516  -0.005994  -0.000072  -0.000118   0.000004
    12  C    0.204950  -0.000928   0.000000   0.002902   0.000000  -0.000008
    13  O    8.415379   0.034304  -0.000034  -0.007515   0.000002  -0.000047
    14  H    0.034304   0.360072  -0.000067  -0.000018   0.000000   0.000000
    15  H   -0.000034  -0.000067   0.533101   0.000011  -0.004344  -0.000160
    16  H   -0.007515  -0.000018   0.000011   0.529093  -0.000175  -0.005686
    17  H    0.000002   0.000000  -0.004344  -0.000175   0.579874  -0.005819
    18  H   -0.000047   0.000000  -0.000160  -0.005686  -0.005819   0.566238
    19  H    0.001572   0.000171   0.000000  -0.000006   0.000000   0.000000
    20  H    0.003640   0.000024   0.000000   0.000005   0.000000   0.000000
    21  H    0.001442   0.000303   0.000000  -0.000020   0.000000   0.000000
              19         20         21
     1  C    0.000000   0.000000   0.000000
     2  C   -0.000011   0.000006  -0.000028
     3  C    0.000000   0.000000   0.000000
     4  C    0.000000   0.000000  -0.000001
     5  C    0.357106   0.362344   0.359640
     6  C    0.000006   0.000003   0.000013
     7  C   -0.000044  -0.000063   0.000004
     8  O   -0.000002   0.000000   0.000000
     9  O    0.001116   0.001487   0.000764
    10  O    0.001217   0.000002  -0.000018
    11  C    0.000062   0.000001  -0.000003
    12  C   -0.023015  -0.023348  -0.020164
    13  O    0.001572   0.003640   0.001442
    14  H    0.000171   0.000024   0.000303
    15  H    0.000000   0.000000   0.000000
    16  H   -0.000006   0.000005  -0.000020
    17  H    0.000000   0.000000   0.000000
    18  H    0.000000   0.000000   0.000000
    19  H    0.507221  -0.023626  -0.024028
    20  H   -0.023626   0.502820  -0.019867
    21  H   -0.024028  -0.019867   0.501080
 Mulliken charges:
               1
     1  C   -0.142257
     2  C   -0.170555
     3  C   -0.145480
     4  C   -0.116394
     5  C   -0.541915
     6  C    0.004416
     7  C    0.330147
     8  O   -0.482970
     9  O   -0.430287
    10  O   -0.538749
    11  C    0.498343
    12  C    0.617813
    13  O   -0.555471
    14  H    0.418748
    15  H    0.179084
    16  H    0.180984
    17  H    0.142943
    18  H    0.151884
    19  H    0.202259
    20  H    0.196574
    21  H    0.200883
 Sum of Mulliken charges =   0.00000
 Mulliken charges with hydrogens summed into heavy atoms:
               1
     1  C    0.036827
     2  C    0.010429
     3  C   -0.002537
     4  C    0.035490
     5  C    0.057801
     6  C    0.004416
     7  C    0.330147
     8  O   -0.482970
     9  O   -0.430287
    10  O   -0.120000
    11  C    0.498343
    12  C    0.617813
    13  O   -0.555471
 Electronic spatial extent (au):  <R**2>=           2430.6178
 Charge=              0.0000 electrons
 Dipole moment (field-independent basis, Debye):
    X=              2.4434    Y=             -3.1924    Z=             -2.1844  Tot=              4.5753
 Quadrupole moment (field-independent basis, Debye-Ang):
   XX=            -67.9945   YY=            -82.0529   ZZ=            -74.6049
   XY=             16.9595   XZ=             -0.4091   YZ=             -1.7428
 Traceless Quadrupole moment (field-independent basis, Debye-Ang):
   XX=              6.8896   YY=             -7.1688   ZZ=              0.2792
   XY=             16.9595   XZ=             -0.4091   YZ=             -1.7428
 Octapole moment (field-independent basis, Debye-Ang**2):
  XXX=             22.2997  YYY=            -42.5406  ZZZ=              0.7007  XYY=             12.5548
  XXY=              4.8938  XXZ=            -14.3193  XZZ=             10.7921  YZZ=              8.9798
  YYZ=             -6.3871  XYZ=             10.9545
 Hexadecapole moment (field-independent basis, Debye-Ang**3):
 XXXX=          -1678.0119 YYYY=          -1201.8259 ZZZZ=           -107.9689 XXXY=            102.8643
 XXXZ=             -3.1602 YYYX=             70.7132 YYYZ=            -13.6878 ZZZX=             -3.9399
 ZZZY=             -6.3530 XXYY=           -529.9686 XXZZ=           -329.3487 YYZZ=           -223.8108
 XXYZ=             -8.9063 YYXZ=              5.1001 ZZXY=             -6.5130
 N-N= 7.718832422364D+02 E-N=-3.057839022462D+03  KE= 6.429481753986D+02
 No NMR shielding tensors so no spin-rotation constants.
 Leave Link  601 at Mon Aug  7 12:57:16 2023, MaxMem=   458752000 cpu:         0.2
 (Enter /opt/apps/apps/binapps/gaussian/g09d01_em64t/g09/l602.exe)
 FitSet:  NAtFit=    21 NAtPot=    21 NAtFrz=     0 MDM=    25 TotChg=   0.00000
 Merz-Kollman atomic radii used.

 **********************************************************************

            Electrostatic Properties Using The SCF Density

 **********************************************************************

       Atomic Center    1 is at  -2.451739 -0.345182 -0.063578
       Atomic Center    2 is at  -0.092378 -1.874177 -0.143139
       Atomic Center    3 is at  -2.503703 -1.715340 -0.081872
       Atomic Center    4 is at  -1.325650 -2.496226 -0.091362
       Atomic Center    5 is at   3.386174  0.825788 -0.191135
       Atomic Center    6 is at  -1.212880  0.270637 -0.075916
       Atomic Center    7 is at  -0.000619 -0.494006 -0.132738
       Atomic Center    8 is at  -2.061912  2.419229  0.620312
       Atomic Center    9 is at   2.744762 -1.388456  0.590352
       Atomic Center   10 is at  -0.182686  2.471834 -0.379188
       Atomic Center   11 is at  -1.166354  1.725722  0.085740
       Atomic Center   12 is at   2.470985 -0.303049  0.117017
       Atomic Center   13 is at   1.200707  0.158043 -0.178607
       Atomic Center   14 is at   0.431629  1.786840 -0.680721
       Atomic Center   15 is at  -3.369678  0.288528 -0.216673
       Atomic Center   16 is at   0.774292 -2.517669 -0.134809
       Atomic Center   17 is at  -3.459096 -2.274590  0.031420
       Atomic Center   18 is at  -1.450338 -3.552029  0.007411
       Atomic Center   19 is at   3.009740  1.752022  0.271490
       Atomic Center   20 is at   4.394348  0.663964  0.208633
       Atomic Center   21 is at   3.439125  1.002724 -1.247819
    1008 points will be used for fitting atomic charges
 Fitting point charges to electrostatic potential
 Charges from ESP fit, RMS=   0.00107 RRMS=   0.05182:
 ESP charges:
               1
     1  C   -0.074899
     2  C   -0.304230
     3  C   -0.135027
     4  C   -0.066797
     5  C   -0.542342
     6  C   -0.277176
     7  C    0.409343
     8  O   -0.506972
     9  O   -0.465223
    10  O   -0.499799
    11  C    0.688312
    12  C    0.748625
    13  O   -0.399930
    14  H    0.335889
    15  H    0.147041
    16  H    0.183927
    17  H    0.123272
    18  H    0.139635
    19  H    0.170998
    20  H    0.154347
    21  H    0.171003
 Sum of ESP charges =   0.00000
 ESP charges with hydrogens summed into heavy atoms:
               1
     1  C    0.072142
     2  C   -0.120304
     3  C   -0.011755
     4  C    0.072839
     5  C   -0.045993
     6  C   -0.277176
     7  C    0.409343
     8  O   -0.506972
     9  O   -0.465223
    10  O   -0.163910
    11  C    0.688312
    12  C    0.748625
    13  O   -0.399930
 Charge=   0.00000 Dipole=     2.4417    -3.2287    -2.2137 Tot=     4.6138
 -----------------------------------------------------------------

              Electrostatic Properties (Atomic Units)

 -----------------------------------------------------------------
    Center     Electric         -------- Electric Field --------
               Potential          X             Y             Z
 -----------------------------------------------------------------
    1 Atom    -14.710418
    2 Atom    -14.716610
    3 Atom    -14.716887
    4 Atom    -14.712948
    5 Atom    -14.703392
    6 Atom    -14.698347
    7 Atom    -14.633416
    8 Atom    -22.356962
    9 Atom    -22.289137
   10 Atom    -22.275775
   11 Atom    -14.615339
   12 Atom    -14.564043
   13 Atom    -22.215751
   14 Atom     -0.959403
   15 Atom     -1.081074
   16 Atom     -1.084810
   17 Atom     -1.089068
   18 Atom     -1.084200
   19 Atom     -1.067996
   20 Atom     -1.076781
   21 Atom     -1.064675
 -----------------------------------------------------------------
 Leave Link  602 at Mon Aug  7 12:57:16 2023, MaxMem=   458752000 cpu:         0.2
 (Enter /opt/apps/apps/binapps/gaussian/g09d01_em64t/g09/l701.exe)
 Compute integral first derivatives.
 ... and contract with generalized density number  0.
 R6Disp: Adding Grimme-D3 dispersion energy 1st derivatives to the gradient.
 Leave Link  701 at Mon Aug  7 12:57:17 2023, MaxMem=   458752000 cpu:         0.2
 (Enter /opt/apps/apps/binapps/gaussian/g09d01_em64t/g09/l702.exe)
 L702 exits ... SP integral derivatives will be done elsewhere.
 Leave Link  702 at Mon Aug  7 12:57:17 2023, MaxMem=   458752000 cpu:         0.0
 (Enter /opt/apps/apps/binapps/gaussian/g09d01_em64t/g09/l703.exe)
 Compute integral first derivatives, UseDBF=F ICtDFT=           0.
 Integral derivatives from FoFJK, PRISM(SPDF).
 Calling FoFJK, ICntrl=      2127 FMM=F ISym2X=0 I1Cent= 0 IOpClX= 0 NMat=1 NMatS=1 NMatT=0.
 FoFJK:  IHMeth= 1 ICntrl=    2127 DoSepK=F KAlg= 0 I1Cent=   0 FoldK=F
 IRaf=         0 NMat=   1 IRICut=       1 DoRegI=T DoRafI=F ISym2E= 0.
 FoFCou: FMM=F IPFlag=           0 FMFlag=      100000 FMFlg1=         800
         NFxFlg=           0 DoJE=F BraDBF=F KetDBF=F FulRan=T
         wScrn=  0.000000 ICntrl=    2127 IOpCl=  0 I1Cent=           0 NGrid=           0
         NMat0=    1 NMatS0=      1 NMatT0=    0 NMatD0=    1 NMtDS0=    0 NMtDT0=    0
 Symmetry not used in FoFCou.
 Leave Link  703 at Mon Aug  7 12:57:54 2023, MaxMem=   458752000 cpu:        37.7
 (Enter /opt/apps/apps/binapps/gaussian/g09d01_em64t/g09/l716.exe)
 Dipole        = 9.61294463D-01-1.25600053D+00-8.59401125D-01
 ***** Axes restored to original set *****
 -------------------------------------------------------------------
 Center     Atomic                   Forces (Hartrees/Bohr)
 Number     Number              X              Y              Z
 -------------------------------------------------------------------
      1        6           0.031333181   -0.003103093   -0.009678222
      2        6          -0.011847539    0.015774496    0.011621464
      3        6          -0.001112927    0.018886279    0.037885848
      4        6           0.026667429   -0.026505427   -0.005140374
      5        6          -0.019574256   -0.019703000   -0.005040794
      6        6          -0.034581728    0.004162490   -0.019121999
      7        6           0.019714237    0.000151061    0.024397041
      8        8          -0.014226338    0.043849591    0.021109094
      9        8           0.017956377   -0.007421458   -0.017686746
     10        8          -0.027589065    0.032569525   -0.010392378
     11        6           0.063580095   -0.093071303   -0.001085565
     12        6          -0.012771303    0.003265515    0.024280896
     13        8           0.006261192   -0.004816552   -0.012000360
     14        1          -0.014026281    0.004848832   -0.023493643
     15        1          -0.026550030    0.003079514    0.008464388
     16        1          -0.004513582   -0.001803136   -0.006729525
     17        1          -0.003828782   -0.002204060   -0.017575072
     18        1          -0.006661751    0.012600156    0.005254528
     19        1           0.001993551    0.004048781    0.001727159
     20        1           0.003407180    0.005268568    0.003476577
     21        1           0.006370338    0.010123221   -0.010272316
 -------------------------------------------------------------------
 Cartesian Forces:  Max     0.093071303 RMS     0.021667972
 Z-matrix is all fixed cartesians, so copy forces.
 Leave Link  716 at Mon Aug  7 12:57:54 2023, MaxMem=   458752000 cpu:         0.1
 (Enter /opt/apps/apps/binapps/gaussian/g09d01_em64t/g09/l103.exe)

 GradGradGradGradGradGradGradGradGradGradGradGradGradGradGradGradGradGrad
 Berny optimization.
 Search for a local minimum.
 Step number   1 out of a maximum of    2
 All quantities printed in internal units (Hartrees-Bohrs-Radians)
 Second derivative matrix not updated -- first step.
 ITU=  0
     Eigenvalues ---    0.00080   0.00152   0.00184   0.00340   0.00472
     Eigenvalues ---    0.00943   0.00998   0.01400   0.01921   0.02514
     Eigenvalues ---    0.02950   0.03548   0.03780   0.04546   0.05591
     Eigenvalues ---    0.05789   0.06619   0.06992   0.07118   0.07766
     Eigenvalues ---    0.09189   0.09370   0.10441   0.12301   0.12990
     Eigenvalues ---    0.13140   0.14104   0.15555   0.17172   0.19254
     Eigenvalues ---    0.21350   0.22214   0.24126   0.30360   0.31669
     Eigenvalues ---    0.32713   0.38614   0.44108   0.46069   0.49373
     Eigenvalues ---    0.63402   0.67857   0.78621   0.87586   0.92798
     Eigenvalues ---    0.95012   1.09378   1.10335   1.14379   1.24161
     Eigenvalues ---    1.41916   1.47536   1.53174   1.59367   1.75566
     Eigenvalues ---    1.98447   2.28278
 Quadratic step=1.172D+00 exceeds max=3.000D-01 adjusted using Lamda=-1.052D-01.
 Angle between NR and scaled steps=  48.61 degrees.
 Angle between quadratic step and forces=  49.14 degrees.
 Linear search not attempted -- first point.
 TrRot=  0.030715 -0.022319  0.001300 -0.425740 -0.000345  0.426457
 Variable       Old X    -DE/DX   Delta X   Delta X   Delta X     New X
                                 (Linear)    (Quad)   (Total)
    X1       26.95982   0.03133   0.00000   0.00456   0.01088  26.97069
    Y1       22.83044  -0.00310   0.00000   0.02134   0.02198  22.85242
    Z1       25.47651  -0.00968   0.00000  -0.02114  -0.01463  25.46189
    X2       22.56160  -0.01185   0.00000  -0.00800  -0.00383  22.55776
    Y2       25.81456   0.01577   0.00000   0.01309   0.01058  25.82514
    Z2       25.49756   0.01162   0.00000   0.03390   0.03860  25.53616
    X3       26.59512  -0.00111   0.00000   0.00916   0.01360  26.60872
    Y3       24.64216   0.01889   0.00000   0.00606   0.00670  24.64886
    Z3       27.29299   0.03789   0.00000   0.03900   0.04514  27.33813
    X4       24.36849   0.02667   0.00000   0.02403   0.02742  24.39591
    Y4       26.11577  -0.02651   0.00000  -0.02161  -0.02254  26.09323
    Z4       27.35961  -0.00514   0.00000   0.02572   0.03096  27.39057
    X5       17.70710  -0.01957   0.00000  -0.03048  -0.02268  17.68442
    Y5       23.59045  -0.01970   0.00000  -0.01888  -0.02581  23.56464
    Z5       19.11486  -0.00504   0.00000  -0.01704  -0.01355  19.10132
    X6       25.10936  -0.03458   0.00000  -0.02582  -0.01865  25.09070
    Y6       22.48811   0.00416   0.00000  -0.02313  -0.02410  22.46400
    Z6       23.66152  -0.01912   0.00000  -0.03084  -0.02487  23.63666
    X7       22.86963   0.01971   0.00000   0.00802   0.01407  22.88370
    Y7       24.01450   0.00015   0.00000  -0.00385  -0.00640  24.00810
    Z7       23.62733   0.02440   0.00000   0.03333   0.03839  23.66572
    X8       26.69264  -0.01423   0.00000   0.04807   0.05850  26.75114
    Y8       18.43650   0.04385   0.00000   0.01791   0.01795  18.45445
    Z8       22.29457   0.02111   0.00000   0.09674   0.10381  22.39838
    X9       17.38886   0.01796   0.00000   0.04729   0.05254  17.44140
    Y9       25.25733  -0.00742   0.00000   0.00438  -0.00211  25.25521
    Z9       23.39024  -0.01769   0.00000  -0.01851  -0.01534  23.37490
   X10       24.38414  -0.02759   0.00000  -0.07387  -0.06396  24.32018
   Y10       20.35771   0.03257   0.00000   0.06052   0.05842  20.41613
   Z10       19.61719  -0.01039   0.00000  -0.03043  -0.02441  19.59279
   X11       25.39532   0.06358   0.00000   0.04840   0.05768  25.45300
   Y11       20.37560  -0.09307   0.00000  -0.07470  -0.07566  20.29994
   Z11       21.89588  -0.00109   0.00000  -0.03617  -0.02978  21.86610
   X12       18.60122  -0.01277   0.00000   0.00572   0.01219  18.61341
   Y12       24.34242   0.00327   0.00000  -0.03302  -0.03891  24.30351
   Z12       21.66745   0.02428   0.00000   0.00124   0.00492  21.67237
   X13       21.12152   0.00626   0.00000   0.02529   0.03220  21.15372
   Y13       23.65433  -0.00482   0.00000  -0.00741  -0.01147  23.64286
   Z13       21.75813  -0.01200   0.00000  -0.01168  -0.00711  21.75102
   X14       23.36994  -0.01403   0.00000  -0.10134  -0.09250  23.27744
   Y14       21.87893   0.00485   0.00000   0.05015   0.04729  21.92622
   Z14       19.68954  -0.02349   0.00000  -0.12723  -0.12175  19.56780
   X15       28.83407  -0.02655   0.00000  -0.08004  -0.07292  28.76115
   Y15       21.85803   0.00308   0.00000  -0.01968  -0.01779  21.84024
   Z15       25.21497   0.00846   0.00000   0.02965   0.03687  25.25184
   X16       20.88755  -0.00451   0.00000  -0.02264  -0.01933  20.86822
   Y16       26.96972  -0.00180   0.00000   0.00217  -0.00154  26.96818
   Z16       25.65382  -0.00673   0.00000  -0.02394  -0.01994  25.63389
   X17       27.90897  -0.00383   0.00000   0.02659   0.03038  27.93935
   Y17       24.88216  -0.00220   0.00000  -0.00261  -0.00079  24.88137
   Z17       28.91734  -0.01758   0.00000  -0.03567  -0.02915  28.88819
   X18       24.13701  -0.00666   0.00000  -0.01396  -0.01199  24.12503
   Y18       27.33376   0.01260   0.00000   0.04066   0.03976  27.37351
   Z18       28.95148   0.00525   0.00000   0.00388   0.00886  28.96033
   X19       18.27476   0.00199   0.00000  -0.00825   0.00107  18.27583
   Y19       21.62831   0.00405   0.00000  -0.00093  -0.00749  21.62081
   Z19       18.71272   0.00173   0.00000  -0.00982  -0.00587  18.70685
   X20       15.64186   0.00341   0.00000  -0.01714  -0.00937  15.63248
   Y20       23.65218   0.00527   0.00000   0.02757   0.01915  23.67133
   Z20       18.95717   0.00348   0.00000   0.01322   0.01605  18.97323
   X21       18.53920   0.00637   0.00000  -0.00270   0.00469  18.54390
   Y21       24.75336   0.01012   0.00000   0.01931   0.01280  24.76616
   Z21       17.67805  -0.01027   0.00000  -0.02080  -0.01721  17.66084
         Item               Value     Threshold  Converged?
 Maximum Force            0.093071     0.000450     NO 
 RMS     Force            0.021668     0.000300     NO 
 Maximum Displacement     0.121747     0.001800     NO 
 RMS     Displacement     0.037427     0.001200     NO 
 Predicted change in Energy=-2.163917D-02
 GradGradGradGradGradGradGradGradGradGradGradGradGradGradGradGradGradGrad

 Leave Link  103 at Mon Aug  7 12:57:55 2023, MaxMem=   458752000 cpu:         0.0
 (Enter /opt/apps/apps/binapps/gaussian/g09d01_em64t/g09/l9999.exe)
 1\1\GINC-NODE611\Force\RB3LYP\6-31G(d)\C9H8O4\MBDX6CW3\07-Aug-2023\0\\
 #p b3lyp/6-31g* pop=mk empiricaldispersion=gd3 int(ultrafine) force\\a
 spirin\\0,1\C,14.26652074,12.08135009,13.48158956\C,11.93908215,13.660
 47859,13.49272847\C,14.07353282,13.04006934,14.4428277\C,12.89524913,1
 3.81986976,14.47808385\C,9.37019408,12.48352766,10.11515021\C,13.28729
 868,11.90019488,12.52113938\C,12.10208654,12.70792603,12.5030458\O,14.
 12513494,9.75617588,11.79777861\O,9.20178652,13.3656013,12.3775804\O,1
 2.9035306,10.77283502,10.38097024\C,13.43862534,10.78230381,11.5868008
 1\C,9.84334052,12.88145542,11.46592259\O,11.17702723,12.51733422,11.51
 390672\H,12.36683965,11.57783151,10.41925669\H,15.25833368,11.56677365
 ,13.34318519\H,11.05321527,14.27176356,13.57541919\H,14.7687912,13.167
 07373,15.30239582\H,12.77275681,14.46440101,15.3204608\H,9.67058599,11
 .4452064,9.90234435\H,8.27731431,12.51619697,10.0317049\H,9.81052399,1
 3.09891582,9.35482144\\Version=ES64L-G09RevD.01\State=1-A\HF=-648.6788
 081\RMSD=8.333e-09\RMSF=2.167e-02\Dipole=-0.70601,1.6553833,-0.0380887
 \Quadrupole=-0.1768357,-6.880939,7.0577746,7.6862011,8.8799257,-1.2550
 84\PG=C01 [X(C9H8O4)]\\@


 Money is a good servant but a bad master.
                        -- French Proverb
 Job cpu time:       0 days  0 hours  2 minutes 58.4 seconds.
 File lengths (MBytes):  RWF=     20 Int=      0 D2E=      0 Chk=      3 Scr=      1
 Normal termination of Gaussian 09 at Mon Aug  7 12:57:55 2023.
