 Entering Gaussian System, Link 0=/opt/apps/apps/binapps/gaussian/g09d01_em64t/g09/g09
 Initial command:
 /opt/apps/apps/binapps/gaussian/g09d01_em64t/g09/l1.exe "/net/scratch2/mbdx6cw3/aspirin/300K-meta/dft/qm_input/gau_temp_10/Gau-2870.inp" -scrdir="/net/scratch2/mbdx6cw3/aspirin/300K-meta/dft/qm_input/gau_temp_10/"
 Entering Link 1 = /opt/apps/apps/binapps/gaussian/g09d01_em64t/g09/l1.exe PID=      2873.
  
 Copyright (c) 1988,1990,1992,1993,1995,1998,2003,2009,2013,
            Gaussian, Inc.  All Rights Reserved.
  
 This is part of the Gaussian(R) 09 program.  It is based on
 the Gaussian(R) 03 system (copyright 2003, Gaussian, Inc.),
 the Gaussian(R) 98 system (copyright 1998, Gaussian, Inc.),
 the Gaussian(R) 94 system (copyright 1995, Gaussian, Inc.),
 the Gaussian 92(TM) system (copyright 1992, Gaussian, Inc.),
 the Gaussian 90(TM) system (copyright 1990, Gaussian, Inc.),
 the Gaussian 88(TM) system (copyright 1988, Gaussian, Inc.),
 the Gaussian 86(TM) system (copyright 1986, Carnegie Mellon
 University), and the Gaussian 82(TM) system (copyright 1983,
 Carnegie Mellon University). Gaussian is a federally registered
 trademark of Gaussian, Inc.
  
 This software contains proprietary and confidential information,
 including trade secrets, belonging to Gaussian, Inc.
  
 This software is provided under written license and may be
 used, copied, transmitted, or stored only in accord with that
 written license.
  
 The following legend is applicable only to US Government
 contracts under FAR:
  
                    RESTRICTED RIGHTS LEGEND
  
 Use, reproduction and disclosure by the US Government is
 subject to restrictions as set forth in subparagraphs (a)
 and (c) of the Commercial Computer Software - Restricted
 Rights clause in FAR 52.227-19.
  
 Gaussian, Inc.
 340 Quinnipiac St., Bldg. 40, Wallingford CT 06492
  
  
 ---------------------------------------------------------------
 Warning -- This program may not be used in any manner that
 competes with the business of Gaussian, Inc. or will provide
 assistance to any competitor of Gaussian, Inc.  The licensee
 of this program is prohibited from giving any competitor of
 Gaussian, Inc. access to this program.  By using this program,
 the user acknowledges that Gaussian, Inc. is engaged in the
 business of creating and licensing software in the field of
 computational chemistry and represents and warrants to the
 licensee that it is not a competitor of Gaussian, Inc. and that
 it will not use this program in any manner prohibited above.
 ---------------------------------------------------------------
  

 Cite this work as:
 Gaussian 09, Revision D.01,
 M. J. Frisch, G. W. Trucks, H. B. Schlegel, G. E. Scuseria, 
 M. A. Robb, J. R. Cheeseman, G. Scalmani, V. Barone, B. Mennucci, 
 G. A. Petersson, H. Nakatsuji, M. Caricato, X. Li, H. P. Hratchian, 
 A. F. Izmaylov, J. Bloino, G. Zheng, J. L. Sonnenberg, M. Hada, 
 M. Ehara, K. Toyota, R. Fukuda, J. Hasegawa, M. Ishida, T. Nakajima, 
 Y. Honda, O. Kitao, H. Nakai, T. Vreven, J. A. Montgomery, Jr., 
 J. E. Peralta, F. Ogliaro, M. Bearpark, J. J. Heyd, E. Brothers, 
 K. N. Kudin, V. N. Staroverov, T. Keith, R. Kobayashi, J. Normand, 
 K. Raghavachari, A. Rendell, J. C. Burant, S. S. Iyengar, J. Tomasi, 
 M. Cossi, N. Rega, J. M. Millam, M. Klene, J. E. Knox, J. B. Cross, 
 V. Bakken, C. Adamo, J. Jaramillo, R. Gomperts, R. E. Stratmann, 
 O. Yazyev, A. J. Austin, R. Cammi, C. Pomelli, J. W. Ochterski, 
 R. L. Martin, K. Morokuma, V. G. Zakrzewski, G. A. Voth, 
 P. Salvador, J. J. Dannenberg, S. Dapprich, A. D. Daniels, 
 O. Farkas, J. B. Foresman, J. V. Ortiz, J. Cioslowski, 
 and D. J. Fox, Gaussian, Inc., Wallingford CT, 2013.
 
 ******************************************
 Gaussian 09:  ES64L-G09RevD.01 24-Apr-2013
                 7-Aug-2023 
 ******************************************
 %chk=./gau_temp_10/mol_chk.chk
 %mem=3500MB
 -------------------------------------------------------------------
 #p b3lyp/6-31g* pop=mk empiricaldispersion=gd3 int(ultrafine) force
 -------------------------------------------------------------------
 1/10=7,30=1,38=1/1,3;
 2/12=2,17=6,18=5,40=1/2;
 3/5=1,6=6,7=1,11=2,16=1,25=1,30=1,71=1,74=-5,75=-5,124=31/1,2,3;
 4//1;
 5/5=2,38=5/2;
 6/7=2,8=2,9=2,10=2,15=8,20=1,28=1/1,2;
 7/29=1/1,2,3,16;
 1/10=7,30=1/3;
 99//99;
 Leave Link    1 at Mon Aug  7 12:59:54 2023, MaxMem=   458752000 cpu:         0.0
 (Enter /opt/apps/apps/binapps/gaussian/g09d01_em64t/g09/l101.exe)
 -------
 aspirin
 -------
 Symbolic Z-matrix:
 Charge =  0 Multiplicity = 1
 C                     14.34502   12.95796   12.61848 
 C                     11.93867   14.06745   13.34883 
 C                     14.24296   14.30053   12.89721 
 C                     13.01076   14.87607   13.32114 
 C                     8.91529   11.09536   11.59557 
 C                     13.19791   12.15002   12.48467 
 C                     11.96764   12.74437   12.85456 
 O                     14.30503   10.37301   11.28845 
 O                     10.16074   12.96544   10.70713 
 O                     12.38194   9.88891   12.29299 
 C                     13.31654   10.74735   11.90822 
 C                     10.02866   12.16915   11.63082 
 O                     10.87124   11.96036   12.68927 
 H                     11.67824   10.5496   12.55957 
 H                     15.30959   12.45905   12.47374 
 H                     10.96375   14.45529   13.57257 
 H                     15.10639   14.90702   12.85847 
 H                     13.00366   15.83233   13.73738 
 H                     8.32753   11.30051   10.72812 
 H                     9.30325   10.06367   11.4358 
 H                     8.35045   11.10646   12.49034 
 
 NAtoms=     21 NQM=       21 NQMF=       0 NMMI=      0 NMMIF=      0
                NMic=       0 NMicF=      0.
                    Isotopes and Nuclear Properties:
 (Nuclear quadrupole moments (NQMom) in fm**2, nuclear magnetic moments (NMagM)
  in nuclear magnetons)

  Atom         1           2           3           4           5           6           7           8           9          10
 IAtWgt=          12          12          12          12          12          12          12          16          16          16
 AtmWgt=  12.0000000  12.0000000  12.0000000  12.0000000  12.0000000  12.0000000  12.0000000  15.9949146  15.9949146  15.9949146
 NucSpn=           0           0           0           0           0           0           0           0           0           0
 AtZEff=   0.0000000   0.0000000   0.0000000   0.0000000   0.0000000   0.0000000   0.0000000   0.0000000   0.0000000   0.0000000
 NQMom=    0.0000000   0.0000000   0.0000000   0.0000000   0.0000000   0.0000000   0.0000000   0.0000000   0.0000000   0.0000000
 NMagM=    0.0000000   0.0000000   0.0000000   0.0000000   0.0000000   0.0000000   0.0000000   0.0000000   0.0000000   0.0000000
 AtZNuc=   6.0000000   6.0000000   6.0000000   6.0000000   6.0000000   6.0000000   6.0000000   8.0000000   8.0000000   8.0000000

  Atom        11          12          13          14          15          16          17          18          19          20
 IAtWgt=          12          12          16           1           1           1           1           1           1           1
 AtmWgt=  12.0000000  12.0000000  15.9949146   1.0078250   1.0078250   1.0078250   1.0078250   1.0078250   1.0078250   1.0078250
 NucSpn=           0           0           0           1           1           1           1           1           1           1
 AtZEff=   0.0000000   0.0000000   0.0000000   0.0000000   0.0000000   0.0000000   0.0000000   0.0000000   0.0000000   0.0000000
 NQMom=    0.0000000   0.0000000   0.0000000   0.0000000   0.0000000   0.0000000   0.0000000   0.0000000   0.0000000   0.0000000
 NMagM=    0.0000000   0.0000000   0.0000000   2.7928460   2.7928460   2.7928460   2.7928460   2.7928460   2.7928460   2.7928460
 AtZNuc=   6.0000000   6.0000000   8.0000000   1.0000000   1.0000000   1.0000000   1.0000000   1.0000000   1.0000000   1.0000000

  Atom        21
 IAtWgt=           1
 AtmWgt=   1.0078250
 NucSpn=           1
 AtZEff=   0.0000000
 NQMom=    0.0000000
 NMagM=    2.7928460
 AtZNuc=   1.0000000
 Leave Link  101 at Mon Aug  7 12:59:54 2023, MaxMem=   458752000 cpu:         0.1
 (Enter /opt/apps/apps/binapps/gaussian/g09d01_em64t/g09/l103.exe)

 GradGradGradGradGradGradGradGradGradGradGradGradGradGradGradGradGradGrad
 Berny optimization.
 Initialization pass.
 Trust Radius=3.00D-01 FncErr=1.00D-07 GrdErr=1.00D-07
 Number of steps in this run=      2 maximum allowed number of steps=      2.
 GradGradGradGradGradGradGradGradGradGradGradGradGradGradGradGradGradGrad

 Leave Link  103 at Mon Aug  7 12:59:54 2023, MaxMem=   458752000 cpu:         0.0
 (Enter /opt/apps/apps/binapps/gaussian/g09d01_em64t/g09/l202.exe)
                          Input orientation:                          
 ---------------------------------------------------------------------
 Center     Atomic      Atomic             Coordinates (Angstroms)
 Number     Number       Type             X           Y           Z
 ---------------------------------------------------------------------
      1          6           0       14.345025   12.957956   12.618485
      2          6           0       11.938674   14.067448   13.348826
      3          6           0       14.242959   14.300532   12.897207
      4          6           0       13.010756   14.876065   13.321135
      5          6           0        8.915287   11.095359   11.595571
      6          6           0       13.197908   12.150021   12.484667
      7          6           0       11.967639   12.744371   12.854562
      8          8           0       14.305028   10.373007   11.288455
      9          8           0       10.160739   12.965440   10.707132
     10          8           0       12.381943    9.888913   12.292992
     11          6           0       13.316536   10.747353   11.908222
     12          6           0       10.028657   12.169145   11.630825
     13          8           0       10.871238   11.960363   12.689275
     14          1           0       11.678239   10.549605   12.559565
     15          1           0       15.309592   12.459047   12.473736
     16          1           0       10.963750   14.455287   13.572570
     17          1           0       15.106387   14.907022   12.858471
     18          1           0       13.003663   15.832335   13.737384
     19          1           0        8.327526   11.300511   10.728124
     20          1           0        9.303249   10.063671   11.435801
     21          1           0        8.350446   11.106458   12.490344
 ---------------------------------------------------------------------
                    Distance matrix (angstroms):
                    1          2          3          4          5
     1  C    0.000000
     2  C    2.748617   0.000000
     3  C    1.374997   2.359664   0.000000
     4  C    2.439905   1.343126   1.424527   0.000000
     5  C    5.830752   4.587819   6.352281   5.834738   0.000000
     6  C    1.409447   2.451320   2.426318   2.857626   4.499294
     7  C    2.398607   1.412682   2.756908   2.418658   3.690684
     8  O    2.907325   4.847025   4.244690   5.107295   5.446597
     9  O    4.600171   3.369574   4.821143   4.313479   2.416128
    10  O    3.657685   4.332601   4.826058   5.130709   3.736257
    11  C    2.539493   3.872580   3.802819   4.374482   4.426042
    12  C    4.497636   3.194253   4.889466   4.367777   1.547207
    13  O    3.614886   2.452394   4.109517   3.671254   2.402116
    14  H    3.593796   3.614690   4.556451   4.590626   2.976749
    15  H    1.095561   3.836121   2.169816   3.441615   6.596814
    16  H    3.819071   1.072827   3.351608   2.104877   4.403844
    17  H    2.106211   3.313568   1.055859   2.146320   7.379255
    18  H    3.363517   2.097618   2.142002   1.042960   6.613707
    19  H    6.521570   5.250182   6.978351   6.437463   1.067714
    20  H    5.932548   5.160946   6.669890   6.360757   1.113742
    21  H    6.275304   4.730734   6.714861   6.051334   1.058200
                    6          7          8          9         10
     6  C    0.000000
     7  C    1.415499   0.000000
     8  O    2.411310   3.679598   0.000000
     9  O    3.612331   2.815175   4.922781   0.000000
    10  O    2.411461   2.939498   2.222992   4.112629   0.000000
    11  C    1.521131   2.589047   1.225301   4.039997   1.326058
    12  C    3.282312   2.363909   4.650879   1.226678   3.343035
    13  O    2.343338   1.357970   4.033970   2.333212   2.594259
    14  H    2.208242   2.233332   2.923513   3.401555   1.001387
    15  H    2.134204   3.375662   2.601077   5.466993   3.899921
    16  H    3.389580   2.109636   5.748594   3.327944   4.949785
    17  H    3.373881   3.811668   4.864608   5.732140   5.737924
    18  H    3.894415   3.374647   6.123321   5.048141   6.147932
    19  H    5.246687   4.456106   6.074928   2.476509   4.569433
    20  H    4.541073   4.037079   5.013501   3.112316   3.200574
    21  H    4.958523   3.987418   6.118786   3.148464   4.215962
                   11         12         13         14         15
    11  C    0.000000
    12  C    3.592853   0.000000
    13  O    2.839176   1.368886   0.000000
    14  H    1.774082   2.491303   1.630434   0.000000
    15  H    2.687373   5.355635   4.471480   4.103665   0.000000
    16  H    4.696215   3.141850   2.648285   4.097686   4.907011
    17  H    4.627027   5.898002   5.162162   5.552353   2.486341
    18  H    5.413018   5.167902   4.542899   5.572364   4.277054
    19  H    5.156436   2.112638   3.279021   3.891698   7.289623
    20  H    4.098423   2.235458   2.761743   2.671995   6.549145
    21  H    5.012971   2.164364   2.668917   3.374772   7.089393
                   16         17         18         19         20
    16  H    0.000000
    17  H    4.227936   0.000000
    18  H    2.466712   2.459704   0.000000
    19  H    4.999316   7.968578   7.173515   0.000000
    20  H    5.158424   7.691453   7.229649   1.727025   0.000000
    21  H    4.383518   7.760319   6.748441   1.773020   1.762754
                   21
    21  H    0.000000
 Stoichiometry    C9H8O4
 Framework group  C1[X(C9H8O4)]
 Deg. of freedom    57
 Full point group                 C1      NOp   1
 Largest Abelian subgroup         C1      NOp   1
 Largest concise Abelian subgroup C1      NOp   1
                         Standard orientation:                         
 ---------------------------------------------------------------------
 Center     Atomic      Atomic             Coordinates (Angstroms)
 Number     Number       Type             X           Y           Z
 ---------------------------------------------------------------------
      1          6           0        2.317892    0.398110    0.147701
      2          6           0        0.888265   -1.848142   -0.534510
      3          6           0        2.873748   -0.854124    0.264115
      4          6           0        2.157478   -2.020586   -0.130348
      5          6           0       -3.449690   -0.406994   -0.142938
      6          6           0        0.943020    0.566075   -0.113172
      7          6           0        0.222815   -0.604831   -0.450694
      8          8           0        0.841845    2.853246    0.643815
      9          8           0       -1.793767   -1.233277    1.410398
     10          8           0       -0.780330    2.146753   -0.701961
     11          6           0        0.300593    1.936697    0.036899
     12          6           0       -2.015363   -0.798899    0.284810
     13          8           0       -1.105764   -0.426790   -0.668089
     14          1           0       -1.041259    1.191835   -0.853036
     15          1           0        2.905197    1.315465    0.265118
     16          1           0        0.264454   -2.691155   -0.760667
     17          1           0        3.872654   -0.951478    0.592055
     18          1           0        2.665370   -2.924283   -0.244994
     19          1           0       -4.091390   -0.691840    0.661485
     20          1           0       -3.594422    0.692736   -0.243272
     21          1           0       -3.709022   -0.864570   -1.061175
 ---------------------------------------------------------------------
 Rotational constants (GHZ):      1.0496008      0.7586232      0.4969801
 Leave Link  202 at Mon Aug  7 12:59:54 2023, MaxMem=   458752000 cpu:         0.0
 (Enter /opt/apps/apps/binapps/gaussian/g09d01_em64t/g09/l301.exe)
 Standard basis: 6-31G(d) (6D, 7F)
 Ernie: Thresh=  0.10000D-02 Tol=  0.10000D-05 Strict=F.
 There are   211 symmetry adapted cartesian basis functions of A   symmetry.
 There are   211 symmetry adapted basis functions of A   symmetry.
   211 basis functions,   396 primitive gaussians,   211 cartesian basis functions
    47 alpha electrons       47 beta electrons
       nuclear repulsion energy       781.3828334495 Hartrees.
 IExCor=  402 DFT=T Ex+Corr=B3LYP ExCW=0 ScaHFX=  0.200000
 ScaDFX=  0.800000  0.720000  1.000000  0.810000 ScalE2=  1.000000  1.000000
 IRadAn=      5 IRanWt=     -1 IRanGd=            0 ICorTp=0 IEmpDi=131
 NAtoms=   21 NActive=   21 NUniq=   21 SFac= 1.00D+00 NAtFMM=   60 NAOKFM=F Big=F
 Integral buffers will be    131072 words long.
 Raffenetti 2 integral format.
 Two-electron integral symmetry is turned on.
 R6Disp:  Grimme-D3 Dispersion energy=       -0.0178563547 Hartrees.
 Nuclear repulsion after empirical dispersion term =      781.3649770949 Hartrees.
 Leave Link  301 at Mon Aug  7 12:59:54 2023, MaxMem=   458752000 cpu:         0.0
 (Enter /opt/apps/apps/binapps/gaussian/g09d01_em64t/g09/l302.exe)
 NPDir=0 NMtPBC=     1 NCelOv=     1 NCel=       1 NClECP=     1 NCelD=      1
         NCelK=      1 NCelE2=     1 NClLst=     1 CellRange=     0.0.
 One-electron integrals computed using PRISM.
 NBasis=   211 RedAO= T EigKep=  4.61D-04  NBF=   211
 NBsUse=   211 1.00D-06 EigRej= -1.00D+00 NBFU=   211
 Precomputing XC quadrature grid using
 IXCGrd= 4 IRadAn=           5 IRanWt=          -1 IRanGd=           0 AccXCQ= 0.00D+00.
 Generated NRdTot=       0 NPtTot=           0 NUsed=           0 NTot=          32
 NSgBfM=   210   210   210   210   210 MxSgAt=    21 MxSgA2=    21.
 Leave Link  302 at Mon Aug  7 12:59:55 2023, MaxMem=   458752000 cpu:         0.6
 (Enter /opt/apps/apps/binapps/gaussian/g09d01_em64t/g09/l303.exe)
 DipDrv:  MaxL=1.
 Leave Link  303 at Mon Aug  7 12:59:55 2023, MaxMem=   458752000 cpu:         0.0
 (Enter /opt/apps/apps/binapps/gaussian/g09d01_em64t/g09/l401.exe)
 ExpMin= 1.61D-01 ExpMax= 5.48D+03 ExpMxC= 8.25D+02 IAcc=3 IRadAn=         5 AccDes= 0.00D+00
 Harris functional with IExCor=  402 and IRadAn=       5 diagonalized for initial guess.
 HarFok:  IExCor=  402 AccDes= 0.00D+00 IRadAn=         5 IDoV= 1 UseB2=F ITyADJ=14
 ICtDFT=  3500011 ScaDFX=  1.000000  1.000000  1.000000  1.000000
 FoFCou: FMM=F IPFlag=           0 FMFlag=      100000 FMFlg1=           0
         NFxFlg=           0 DoJE=T BraDBF=F KetDBF=T FulRan=T
         wScrn=  0.000000 ICntrl=     500 IOpCl=  0 I1Cent=   200000004 NGrid=           0
         NMat0=    1 NMatS0=      1 NMatT0=    0 NMatD0=    1 NMtDS0=    0 NMtDT0=    0
 Petite list used in FoFCou.
 Harris En= -648.720412049783    
 JPrj=0 DoOrth=F DoCkMO=F.
 Leave Link  401 at Mon Aug  7 13:00:03 2023, MaxMem=   458752000 cpu:         7.5
 (Enter /opt/apps/apps/binapps/gaussian/g09d01_em64t/g09/l502.exe)
 Closed shell SCF:
 Using DIIS extrapolation, IDIIS=  1040.
 Integral symmetry usage will be decided dynamically.
 Keep R1 ints in memory in canonical form, NReq=255049085.
 IVT=      154966 IEndB=      154966 NGot=   458752000 MDV=   208466874
 LenX=   208466874 LenY=   208421912
 Requested convergence on RMS density matrix=1.00D-08 within 128 cycles.
 Requested convergence on MAX density matrix=1.00D-06.
 Requested convergence on             energy=1.00D-06.
 No special actions if energy rises.
 FoFCou: FMM=F IPFlag=           0 FMFlag=           0 FMFlg1=           0
         NFxFlg=           0 DoJE=F BraDBF=F KetDBF=F FulRan=T
         wScrn=  0.000000 ICntrl=     600 IOpCl=  0 I1Cent=           0 NGrid=           0
         NMat0=    1 NMatS0=  22366 NMatT0=    0 NMatD0=    1 NMtDS0=    0 NMtDT0=    0
 Symmetry not used in FoFCou.
 Integral accuracy reduced to 1.0D-05 until final iterations.

 Cycle   1  Pass 0  IDiag  1:
 E= -648.288560916370    
 DIIS: error= 2.57D-02 at cycle   1 NSaved=   1.
 NSaved= 1 IEnMin= 1 EnMin= -648.288560916370     IErMin= 1 ErrMin= 2.57D-02
 ErrMax= 2.57D-02  0.00D+00 EMaxC= 1.00D-01 BMatC= 4.41D-01 BMatP= 4.41D-01
 IDIUse=3 WtCom= 7.43D-01 WtEn= 2.57D-01
 Coeff-Com:  0.100D+01
 Coeff-En:   0.100D+01
 Coeff:      0.100D+01
 Gap=     0.227 Goal=   None    Shift=    0.000
 GapD=    0.227 DampG=1.000 DampE=0.500 DampFc=0.5000 IDamp=-1.
 Damping current iteration by 5.00D-01
 RMSDP=8.11D-03 MaxDP=2.25D-01              OVMax= 3.15D-01

 Cycle   2  Pass 0  IDiag  1:
 E= -648.305561081476     Delta-E=       -0.017000165105 Rises=F Damp=T
 DIIS: error= 1.93D-02 at cycle   2 NSaved=   2.
 NSaved= 2 IEnMin= 2 EnMin= -648.305561081476     IErMin= 2 ErrMin= 1.93D-02
 ErrMax= 1.93D-02  0.00D+00 EMaxC= 1.00D-01 BMatC= 1.37D-01 BMatP= 4.41D-01
 IDIUse=3 WtCom= 8.07D-01 WtEn= 1.93D-01
 Coeff-Com:  0.320D+00 0.680D+00
 Coeff-En:   0.482D+00 0.518D+00
 Coeff:      0.351D+00 0.649D+00
 Gap=     0.197 Goal=   None    Shift=    0.000
 RMSDP=2.84D-03 MaxDP=8.85D-02 DE=-1.70D-02 OVMax= 2.40D-01

 Cycle   3  Pass 0  IDiag  1:
 E= -648.602119707417     Delta-E=       -0.296558625941 Rises=F Damp=F
 DIIS: error= 1.32D-02 at cycle   3 NSaved=   3.
 NSaved= 3 IEnMin= 3 EnMin= -648.602119707417     IErMin= 3 ErrMin= 1.32D-02
 ErrMax= 1.32D-02  0.00D+00 EMaxC= 1.00D-01 BMatC= 7.92D-02 BMatP= 1.37D-01
 IDIUse=3 WtCom= 8.68D-01 WtEn= 1.32D-01
 Coeff-Com:  0.134D+00 0.416D+00 0.450D+00
 Coeff-En:   0.000D+00 0.000D+00 0.100D+01
 Coeff:      0.116D+00 0.361D+00 0.523D+00
 Gap=     0.216 Goal=   None    Shift=    0.000
 RMSDP=1.65D-03 MaxDP=4.71D-02 DE=-2.97D-01 OVMax= 9.40D-02

 Cycle   4  Pass 0  IDiag  1:
 E= -648.661735216482     Delta-E=       -0.059615509065 Rises=F Damp=F
 DIIS: error= 5.88D-03 at cycle   4 NSaved=   4.
 NSaved= 4 IEnMin= 4 EnMin= -648.661735216482     IErMin= 4 ErrMin= 5.88D-03
 ErrMax= 5.88D-03  0.00D+00 EMaxC= 1.00D-01 BMatC= 1.40D-02 BMatP= 7.92D-02
 IDIUse=3 WtCom= 9.41D-01 WtEn= 5.88D-02
 Coeff-Com:  0.352D-01 0.820D-01 0.303D+00 0.580D+00
 Coeff-En:   0.000D+00 0.000D+00 0.153D+00 0.847D+00
 Coeff:      0.331D-01 0.771D-01 0.294D+00 0.596D+00
 Gap=     0.208 Goal=   None    Shift=    0.000
 RMSDP=5.31D-04 MaxDP=1.82D-02 DE=-5.96D-02 OVMax= 3.06D-02

 Cycle   5  Pass 0  IDiag  1:
 E= -648.671923627455     Delta-E=       -0.010188410973 Rises=F Damp=F
 DIIS: error= 1.45D-03 at cycle   5 NSaved=   5.
 NSaved= 5 IEnMin= 5 EnMin= -648.671923627455     IErMin= 5 ErrMin= 1.45D-03
 ErrMax= 1.45D-03  0.00D+00 EMaxC= 1.00D-01 BMatC= 8.79D-04 BMatP= 1.40D-02
 IDIUse=3 WtCom= 9.85D-01 WtEn= 1.45D-02
 Coeff-Com:  0.669D-02 0.215D-02 0.115D+00 0.332D+00 0.544D+00
 Coeff-En:   0.000D+00 0.000D+00 0.000D+00 0.000D+00 0.100D+01
 Coeff:      0.659D-02 0.212D-02 0.113D+00 0.327D+00 0.551D+00
 Gap=     0.208 Goal=   None    Shift=    0.000
 RMSDP=1.60D-04 MaxDP=5.71D-03 DE=-1.02D-02 OVMax= 6.68D-03

 Cycle   6  Pass 0  IDiag  1:
 E= -648.672588662809     Delta-E=       -0.000665035354 Rises=F Damp=F
 DIIS: error= 3.56D-04 at cycle   6 NSaved=   6.
 NSaved= 6 IEnMin= 6 EnMin= -648.672588662809     IErMin= 6 ErrMin= 3.56D-04
 ErrMax= 3.56D-04  0.00D+00 EMaxC= 1.00D-01 BMatC= 8.12D-05 BMatP= 8.79D-04
 IDIUse=3 WtCom= 9.96D-01 WtEn= 3.56D-03
 Coeff-Com:  0.148D-02-0.459D-02 0.405D-01 0.129D+00 0.309D+00 0.525D+00
 Coeff-En:   0.000D+00 0.000D+00 0.000D+00 0.000D+00 0.269D-01 0.973D+00
 Coeff:      0.148D-02-0.457D-02 0.403D-01 0.128D+00 0.308D+00 0.526D+00
 Gap=     0.208 Goal=   None    Shift=    0.000
 RMSDP=4.72D-05 MaxDP=1.56D-03 DE=-6.65D-04 OVMax= 2.75D-03

 Cycle   7  Pass 0  IDiag  1:
 E= -648.672653633793     Delta-E=       -0.000064970984 Rises=F Damp=F
 DIIS: error= 1.41D-04 at cycle   7 NSaved=   7.
 NSaved= 7 IEnMin= 7 EnMin= -648.672653633793     IErMin= 7 ErrMin= 1.41D-04
 ErrMax= 1.41D-04  0.00D+00 EMaxC= 1.00D-01 BMatC= 7.05D-06 BMatP= 8.12D-05
 IDIUse=3 WtCom= 9.99D-01 WtEn= 1.41D-03
 Coeff-Com:  0.430D-03-0.307D-02 0.131D-01 0.416D-01 0.129D+00 0.293D+00
 Coeff-Com:  0.525D+00
 Coeff-En:   0.000D+00 0.000D+00 0.000D+00 0.000D+00 0.000D+00 0.000D+00
 Coeff-En:   0.100D+01
 Coeff:      0.429D-03-0.307D-02 0.131D-01 0.416D-01 0.129D+00 0.293D+00
 Coeff:      0.526D+00
 Gap=     0.208 Goal=   None    Shift=    0.000
 RMSDP=1.48D-05 MaxDP=4.58D-04 DE=-6.50D-05 OVMax= 1.10D-03

 Cycle   8  Pass 0  IDiag  1:
 E= -648.672660107747     Delta-E=       -0.000006473955 Rises=F Damp=F
 DIIS: error= 4.17D-05 at cycle   8 NSaved=   8.
 NSaved= 8 IEnMin= 8 EnMin= -648.672660107747     IErMin= 8 ErrMin= 4.17D-05
 ErrMax= 4.17D-05  0.00D+00 EMaxC= 1.00D-01 BMatC= 6.79D-07 BMatP= 7.05D-06
 IDIUse=1 WtCom= 1.00D+00 WtEn= 0.00D+00
 Coeff-Com:  0.167D-03-0.134D-02 0.335D-02 0.966D-02 0.419D-01 0.107D+00
 Coeff-Com:  0.287D+00 0.552D+00
 Coeff:      0.167D-03-0.134D-02 0.335D-02 0.966D-02 0.419D-01 0.107D+00
 Coeff:      0.287D+00 0.552D+00
 Gap=     0.208 Goal=   None    Shift=    0.000
 RMSDP=4.94D-06 MaxDP=1.13D-04 DE=-6.47D-06 OVMax= 3.74D-04

 Initial convergence to 1.0D-05 achieved.  Increase integral accuracy.
 Cycle   9  Pass 1  IDiag  1:
 E= -648.672675870693     Delta-E=       -0.000015762945 Rises=F Damp=F
 DIIS: error= 1.01D-05 at cycle   1 NSaved=   1.
 NSaved= 1 IEnMin= 1 EnMin= -648.672675870693     IErMin= 1 ErrMin= 1.01D-05
 ErrMax= 1.01D-05  0.00D+00 EMaxC= 1.00D-01 BMatC= 6.24D-08 BMatP= 6.24D-08
 IDIUse=1 WtCom= 1.00D+00 WtEn= 0.00D+00
 Coeff-Com:  0.100D+01
 Coeff:      0.100D+01
 Gap=     0.208 Goal=   None    Shift=    0.000
 RMSDP=4.94D-06 MaxDP=1.13D-04 DE=-1.58D-05 OVMax= 1.90D-04

 Cycle  10  Pass 1  IDiag  1:
 E= -648.672675750128     Delta-E=        0.000000120565 Rises=F Damp=F
 DIIS: error= 2.21D-05 at cycle   2 NSaved=   2.
 NSaved= 2 IEnMin= 1 EnMin= -648.672675870693     IErMin= 1 ErrMin= 1.01D-05
 ErrMax= 2.21D-05  0.00D+00 EMaxC= 1.00D-01 BMatC= 1.96D-07 BMatP= 6.24D-08
 IDIUse=1 WtCom= 1.00D+00 WtEn= 0.00D+00
 Coeff-Com:  0.647D+00 0.353D+00
 Coeff:      0.647D+00 0.353D+00
 Gap=     0.208 Goal=   None    Shift=    0.000
 RMSDP=2.19D-06 MaxDP=6.15D-05 DE= 1.21D-07 OVMax= 1.49D-04

 Cycle  11  Pass 1  IDiag  1:
 E= -648.672675929094     Delta-E=       -0.000000178966 Rises=F Damp=F
 DIIS: error= 4.58D-06 at cycle   3 NSaved=   3.
 NSaved= 3 IEnMin= 3 EnMin= -648.672675929094     IErMin= 3 ErrMin= 4.58D-06
 ErrMax= 4.58D-06  0.00D+00 EMaxC= 1.00D-01 BMatC= 7.54D-09 BMatP= 6.24D-08
 IDIUse=1 WtCom= 1.00D+00 WtEn= 0.00D+00
 Coeff-Com:  0.283D+00 0.206D+00 0.511D+00
 Coeff:      0.283D+00 0.206D+00 0.511D+00
 Gap=     0.208 Goal=   None    Shift=    0.000
 RMSDP=4.92D-07 MaxDP=1.79D-05 DE=-1.79D-07 OVMax= 2.63D-05

 Cycle  12  Pass 1  IDiag  1:
 E= -648.672675934216     Delta-E=       -0.000000005122 Rises=F Damp=F
 DIIS: error= 1.47D-06 at cycle   4 NSaved=   4.
 NSaved= 4 IEnMin= 4 EnMin= -648.672675934216     IErMin= 4 ErrMin= 1.47D-06
 ErrMax= 1.47D-06  0.00D+00 EMaxC= 1.00D-01 BMatC= 1.11D-09 BMatP= 7.54D-09
 IDIUse=1 WtCom= 1.00D+00 WtEn= 0.00D+00
 Coeff-Com:  0.353D-01 0.552D-01 0.304D+00 0.606D+00
 Coeff:      0.353D-01 0.552D-01 0.304D+00 0.606D+00
 Gap=     0.208 Goal=   None    Shift=    0.000
 RMSDP=1.86D-07 MaxDP=5.44D-06 DE=-5.12D-09 OVMax= 1.20D-05

 Cycle  13  Pass 1  IDiag  1:
 E= -648.672675935047     Delta-E=       -0.000000000832 Rises=F Damp=F
 DIIS: error= 7.13D-07 at cycle   5 NSaved=   5.
 NSaved= 5 IEnMin= 5 EnMin= -648.672675935047     IErMin= 5 ErrMin= 7.13D-07
 ErrMax= 7.13D-07  0.00D+00 EMaxC= 1.00D-01 BMatC= 1.87D-10 BMatP= 1.11D-09
 IDIUse=1 WtCom= 1.00D+00 WtEn= 0.00D+00
 Coeff-Com: -0.668D-02 0.143D-01 0.133D+00 0.377D+00 0.483D+00
 Coeff:     -0.668D-02 0.143D-01 0.133D+00 0.377D+00 0.483D+00
 Gap=     0.208 Goal=   None    Shift=    0.000
 RMSDP=7.21D-08 MaxDP=1.86D-06 DE=-8.32D-10 OVMax= 5.26D-06

 Cycle  14  Pass 1  IDiag  1:
 E= -648.672675935219     Delta-E=       -0.000000000172 Rises=F Damp=F
 DIIS: error= 1.62D-07 at cycle   6 NSaved=   6.
 NSaved= 6 IEnMin= 6 EnMin= -648.672675935219     IErMin= 6 ErrMin= 1.62D-07
 ErrMax= 1.62D-07  0.00D+00 EMaxC= 1.00D-01 BMatC= 1.49D-11 BMatP= 1.87D-10
 IDIUse=1 WtCom= 1.00D+00 WtEn= 0.00D+00
 Coeff-Com: -0.647D-02 0.465D-02 0.543D-01 0.179D+00 0.285D+00 0.484D+00
 Coeff:     -0.647D-02 0.465D-02 0.543D-01 0.179D+00 0.285D+00 0.484D+00
 Gap=     0.208 Goal=   None    Shift=    0.000
 RMSDP=2.04D-08 MaxDP=6.92D-07 DE=-1.72D-10 OVMax= 9.66D-07

 Cycle  15  Pass 1  IDiag  1:
 E= -648.672675935213     Delta-E=        0.000000000006 Rises=F Damp=F
 DIIS: error= 8.37D-08 at cycle   7 NSaved=   7.
 NSaved= 7 IEnMin= 6 EnMin= -648.672675935219     IErMin= 7 ErrMin= 8.37D-08
 ErrMax= 8.37D-08  0.00D+00 EMaxC= 1.00D-01 BMatC= 1.72D-12 BMatP= 1.49D-11
 IDIUse=1 WtCom= 1.00D+00 WtEn= 0.00D+00
 Coeff-Com: -0.314D-02 0.115D-02 0.158D-01 0.616D-01 0.108D+00 0.298D+00
 Coeff-Com:  0.518D+00
 Coeff:     -0.314D-02 0.115D-02 0.158D-01 0.616D-01 0.108D+00 0.298D+00
 Coeff:      0.518D+00
 Gap=     0.208 Goal=   None    Shift=    0.000
 RMSDP=6.24D-09 MaxDP=2.22D-07 DE= 5.91D-12 OVMax= 2.90D-07

 SCF Done:  E(RB3LYP) =  -648.672675935     A.U. after   15 cycles
            NFock= 15  Conv=0.62D-08     -V/T= 2.0088
 KE= 6.430133087094D+02 PE=-3.076697808908D+03 EE= 1.003646847168D+03
 Leave Link  502 at Mon Aug  7 13:01:56 2023, MaxMem=   458752000 cpu:       113.1
 (Enter /opt/apps/apps/binapps/gaussian/g09d01_em64t/g09/l601.exe)
 Copying SCF densities to generalized density rwf, IOpCl= 0 IROHF=0.

 **********************************************************************

            Population analysis using the SCF density.

 **********************************************************************

 Orbital symmetries:
       Occupied  (A) (A) (A) (A) (A) (A) (A) (A) (A) (A) (A) (A)
                 (A) (A) (A) (A) (A) (A) (A) (A) (A) (A) (A) (A)
                 (A) (A) (A) (A) (A) (A) (A) (A) (A) (A) (A) (A)
                 (A) (A) (A) (A) (A) (A) (A) (A) (A) (A) (A)
       Virtual   (A) (A) (A) (A) (A) (A) (A) (A) (A) (A) (A) (A)
                 (A) (A) (A) (A) (A) (A) (A) (A) (A) (A) (A) (A)
                 (A) (A) (A) (A) (A) (A) (A) (A) (A) (A) (A) (A)
                 (A) (A) (A) (A) (A) (A) (A) (A) (A) (A) (A) (A)
                 (A) (A) (A) (A) (A) (A) (A) (A) (A) (A) (A) (A)
                 (A) (A) (A) (A) (A) (A) (A) (A) (A) (A) (A) (A)
                 (A) (A) (A) (A) (A) (A) (A) (A) (A) (A) (A) (A)
                 (A) (A) (A) (A) (A) (A) (A) (A) (A) (A) (A) (A)
                 (A) (A) (A) (A) (A) (A) (A) (A) (A) (A) (A) (A)
                 (A) (A) (A) (A) (A) (A) (A) (A) (A) (A) (A) (A)
                 (A) (A) (A) (A) (A) (A) (A) (A) (A) (A) (A) (A)
                 (A) (A) (A) (A) (A) (A) (A) (A) (A) (A) (A) (A)
                 (A) (A) (A) (A) (A) (A) (A) (A) (A) (A) (A) (A)
                 (A) (A) (A) (A) (A) (A) (A) (A)
 The electronic state is 1-A.
 Alpha  occ. eigenvalues --  -19.25608 -19.18953 -19.17535 -19.12718 -10.36103
 Alpha  occ. eigenvalues --  -10.32046 -10.28473 -10.22701 -10.21658 -10.21641
 Alpha  occ. eigenvalues --  -10.21484 -10.21423 -10.21027  -1.16437  -1.10311
 Alpha  occ. eigenvalues --   -1.05595  -1.00560  -0.88439  -0.80321  -0.78548
 Alpha  occ. eigenvalues --   -0.75336  -0.68557  -0.65866  -0.60701  -0.60175
 Alpha  occ. eigenvalues --   -0.55416  -0.53037  -0.52041  -0.51732  -0.49454
 Alpha  occ. eigenvalues --   -0.47309  -0.45306  -0.44654  -0.43897  -0.43832
 Alpha  occ. eigenvalues --   -0.42675  -0.41890  -0.41407  -0.38129  -0.38013
 Alpha  occ. eigenvalues --   -0.37171  -0.34104  -0.30742  -0.30502  -0.27899
 Alpha  occ. eigenvalues --   -0.26708  -0.26603
 Alpha virt. eigenvalues --   -0.05813  -0.03315  -0.02647   0.03911   0.08167
 Alpha virt. eigenvalues --    0.08915   0.12511   0.13289   0.13902   0.14977
 Alpha virt. eigenvalues --    0.15412   0.15905   0.17505   0.18084   0.21072
 Alpha virt. eigenvalues --    0.22886   0.25102   0.26891   0.29181   0.30714
 Alpha virt. eigenvalues --    0.31279   0.33227   0.37408   0.38430   0.46770
 Alpha virt. eigenvalues --    0.48301   0.49055   0.50671   0.50807   0.52053
 Alpha virt. eigenvalues --    0.53303   0.54317   0.55663   0.56303   0.56761
 Alpha virt. eigenvalues --    0.57909   0.58889   0.59496   0.60480   0.61530
 Alpha virt. eigenvalues --    0.61949   0.65070   0.65697   0.67314   0.68594
 Alpha virt. eigenvalues --    0.71642   0.74490   0.75322   0.77741   0.81049
 Alpha virt. eigenvalues --    0.82031   0.82362   0.82887   0.83995   0.86016
 Alpha virt. eigenvalues --    0.86581   0.89592   0.89612   0.90948   0.92801
 Alpha virt. eigenvalues --    0.94006   0.94887   0.96521   0.98864   1.00820
 Alpha virt. eigenvalues --    1.01138   1.03694   1.04607   1.06503   1.07674
 Alpha virt. eigenvalues --    1.08900   1.13412   1.13717   1.15751   1.18875
 Alpha virt. eigenvalues --    1.19725   1.20298   1.26221   1.29760   1.31399
 Alpha virt. eigenvalues --    1.33642   1.37970   1.40465   1.43131   1.45015
 Alpha virt. eigenvalues --    1.46282   1.47861   1.49300   1.50917   1.54134
 Alpha virt. eigenvalues --    1.57471   1.60920   1.63953   1.66921   1.69073
 Alpha virt. eigenvalues --    1.73061   1.74757   1.75727   1.76948   1.79173
 Alpha virt. eigenvalues --    1.79828   1.80222   1.84084   1.85697   1.86716
 Alpha virt. eigenvalues --    1.87659   1.89484   1.89961   1.92011   1.94921
 Alpha virt. eigenvalues --    1.95648   1.98637   2.01807   2.03475   2.05218
 Alpha virt. eigenvalues --    2.08057   2.10838   2.14470   2.16504   2.18560
 Alpha virt. eigenvalues --    2.23592   2.25661   2.27062   2.27813   2.31172
 Alpha virt. eigenvalues --    2.32872   2.36235   2.40009   2.42879   2.48469
 Alpha virt. eigenvalues --    2.52365   2.53923   2.56969   2.57606   2.62224
 Alpha virt. eigenvalues --    2.64940   2.66676   2.68572   2.72201   2.73540
 Alpha virt. eigenvalues --    2.76052   2.79190   2.82340   2.89097   2.90467
 Alpha virt. eigenvalues --    2.98396   3.02009   3.06811   3.08360   3.21447
 Alpha virt. eigenvalues --    3.39598   3.88953   4.01692   4.03835   4.07471
 Alpha virt. eigenvalues --    4.09071   4.13315   4.23787   4.29505   4.34855
 Alpha virt. eigenvalues --    4.38791   4.42573   4.59505   4.73306
          Condensed to atoms (all electrons):
               1          2          3          4          5          6
     1  C    4.973306  -0.048110   0.506220  -0.019049   0.000006   0.492659
     2  C   -0.048110   4.915371  -0.026408   0.533774   0.000079  -0.038664
     3  C    0.506220  -0.026408   4.922018   0.501561   0.000000  -0.021294
     4  C   -0.019049   0.533774   0.501561   4.865890   0.000003  -0.038781
     5  C    0.000006   0.000079   0.000000   0.000003   5.266441  -0.000124
     6  C    0.492659  -0.038664  -0.021294  -0.038781  -0.000124   5.145628
     7  C   -0.040999   0.522525  -0.043072  -0.011568   0.003314   0.479384
     8  O    0.003274  -0.000048   0.000626  -0.000011   0.000001  -0.092587
     9  O   -0.000052   0.001728   0.000010  -0.000227  -0.078910  -0.000417
    10  O    0.003698   0.000020  -0.000067  -0.000003  -0.001081  -0.084948
    11  C   -0.036144   0.004789   0.005452  -0.000271  -0.000314   0.240736
    12  C    0.000060  -0.003670   0.000047  -0.000062   0.361969  -0.005588
    13  O    0.005353  -0.042664   0.000003   0.004002  -0.091358  -0.053224
    14  H   -0.000222   0.000855  -0.000008  -0.000037   0.000820   0.003593
    15  H    0.354925   0.000449  -0.039839   0.004185   0.000000  -0.040463
    16  H    0.000516   0.350834   0.005634  -0.044319  -0.000151   0.006356
    17  H   -0.040402   0.005510   0.364265  -0.044597   0.000000   0.004181
    18  H    0.004121  -0.038700  -0.040892   0.366987   0.000000   0.000687
    19  H    0.000000   0.000004   0.000000   0.000000   0.365881   0.000003
    20  H    0.000000  -0.000010   0.000000   0.000000   0.356775   0.000065
    21  H    0.000000   0.000017   0.000000   0.000000   0.353092  -0.000011
               7          8          9         10         11         12
     1  C   -0.040999   0.003274  -0.000052   0.003698  -0.036144   0.000060
     2  C    0.522525  -0.000048   0.001728   0.000020   0.004789  -0.003670
     3  C   -0.043072   0.000626   0.000010  -0.000067   0.005452   0.000047
     4  C   -0.011568  -0.000011  -0.000227  -0.000003  -0.000271  -0.000062
     5  C    0.003314   0.000001  -0.078910  -0.001081  -0.000314   0.361969
     6  C    0.479384  -0.092587  -0.000417  -0.084948   0.240736  -0.005588
     7  C    4.722722   0.002253   0.010067   0.001853  -0.030303  -0.000857
     8  O    0.002253   8.026194  -0.000001  -0.078515   0.586128  -0.000028
     9  O    0.010067  -0.000001   7.966798  -0.000033   0.000083   0.570306
    10  O    0.001853  -0.078515  -0.000033   8.291669   0.260059   0.003927
    11  C   -0.030303   0.586128   0.000083   0.260059   4.470563   0.001363
    12  C   -0.000857  -0.000028   0.570306   0.003927   0.001363   4.389864
    13  O    0.121187  -0.000012  -0.062907  -0.033440  -0.003984   0.169560
    14  H   -0.011579   0.003967   0.000111   0.205222  -0.026556  -0.005479
    15  H    0.004957   0.011238   0.000000   0.000312  -0.005835  -0.000005
    16  H   -0.042503   0.000000   0.000105   0.000006  -0.000072   0.001752
    17  H    0.001079   0.000001   0.000000   0.000000  -0.000098   0.000000
    18  H    0.003920   0.000000  -0.000002   0.000000   0.000008  -0.000012
    19  H   -0.000059   0.000000   0.004321   0.000007   0.000005  -0.026346
    20  H   -0.000269  -0.000002   0.000658   0.001871   0.000032  -0.016710
    21  H   -0.000030   0.000000   0.002162   0.000013   0.000011  -0.020003
              13         14         15         16         17         18
     1  C    0.005353  -0.000222   0.354925   0.000516  -0.040402   0.004121
     2  C   -0.042664   0.000855   0.000449   0.350834   0.005510  -0.038700
     3  C    0.000003  -0.000008  -0.039839   0.005634   0.364265  -0.040892
     4  C    0.004002  -0.000037   0.004185  -0.044319  -0.044597   0.366987
     5  C   -0.091358   0.000820   0.000000  -0.000151   0.000000   0.000000
     6  C   -0.053224   0.003593  -0.040463   0.006356   0.004181   0.000687
     7  C    0.121187  -0.011579   0.004957  -0.042503   0.001079   0.003920
     8  O   -0.000012   0.003967   0.011238   0.000000   0.000001   0.000000
     9  O   -0.062907   0.000111   0.000000   0.000105   0.000000  -0.000002
    10  O   -0.033440   0.205222   0.000312   0.000006   0.000000   0.000000
    11  C   -0.003984  -0.026556  -0.005835  -0.000072  -0.000098   0.000008
    12  C    0.169560  -0.005479  -0.000005   0.001752   0.000000  -0.000012
    13  O    8.480967   0.052799  -0.000073  -0.003528   0.000002  -0.000052
    14  H    0.052799   0.326267  -0.000088  -0.000017   0.000000   0.000001
    15  H   -0.000073  -0.000088   0.541398   0.000018  -0.005314  -0.000158
    16  H   -0.003528  -0.000017   0.000018   0.589829  -0.000217  -0.006369
    17  H    0.000002   0.000000  -0.005314  -0.000217   0.574854  -0.004890
    18  H   -0.000052   0.000001  -0.000158  -0.006369  -0.004890   0.560918
    19  H    0.003201   0.000012   0.000000   0.000003   0.000000   0.000000
    20  H    0.000158   0.001225   0.000000   0.000001   0.000000   0.000000
    21  H    0.003618  -0.000106   0.000000   0.000012   0.000000   0.000000
              19         20         21
     1  C    0.000000   0.000000   0.000000
     2  C    0.000004  -0.000010   0.000017
     3  C    0.000000   0.000000   0.000000
     4  C    0.000000   0.000000   0.000000
     5  C    0.365881   0.356775   0.353092
     6  C    0.000003   0.000065  -0.000011
     7  C   -0.000059  -0.000269  -0.000030
     8  O    0.000000  -0.000002   0.000000
     9  O    0.004321   0.000658   0.002162
    10  O    0.000007   0.001871   0.000013
    11  C    0.000005   0.000032   0.000011
    12  C   -0.026346  -0.016710  -0.020003
    13  O    0.003201   0.000158   0.003618
    14  H    0.000012   0.001225  -0.000106
    15  H    0.000000   0.000000   0.000000
    16  H    0.000003   0.000001   0.000012
    17  H    0.000000   0.000000   0.000000
    18  H    0.000000   0.000000   0.000000
    19  H    0.493831  -0.025285  -0.018910
    20  H   -0.025285   0.508154  -0.023577
    21  H   -0.018910  -0.023577   0.513212
 Mulliken charges:
               1
     1  C   -0.159160
     2  C   -0.137681
     3  C   -0.134257
     4  C   -0.117477
     5  C   -0.536440
     6  C    0.002809
     7  C    0.307978
     8  O   -0.462479
     9  O   -0.413801
    10  O   -0.570571
    11  C    0.534348
    12  C    0.579911
    13  O   -0.549608
    14  H    0.449220
    15  H    0.174290
    16  H    0.142113
    17  H    0.145625
    18  H    0.154432
    19  H    0.203331
    20  H    0.196914
    21  H    0.190502
 Sum of Mulliken charges =   0.00000
 Mulliken charges with hydrogens summed into heavy atoms:
               1
     1  C    0.015130
     2  C    0.004432
     3  C    0.011367
     4  C    0.036955
     5  C    0.054307
     6  C    0.002809
     7  C    0.307978
     8  O   -0.462479
     9  O   -0.413801
    10  O   -0.121351
    11  C    0.534348
    12  C    0.579911
    13  O   -0.549608
 Electronic spatial extent (au):  <R**2>=           2273.7898
 Charge=              0.0000 electrons
 Dipole moment (field-independent basis, Debye):
    X=             -0.6069    Y=             -4.4783    Z=             -2.5021  Tot=              5.1656
 Quadrupole moment (field-independent basis, Debye-Ang):
   XX=            -58.1385   YY=            -83.3210   ZZ=            -78.4360
   XY=             -4.4716   XZ=              2.8195   YZ=              1.5300
 Traceless Quadrupole moment (field-independent basis, Debye-Ang):
   XX=             15.1600   YY=            -10.0225   ZZ=             -5.1375
   XY=             -4.4716   XZ=              2.8195   YZ=              1.5300
 Octapole moment (field-independent basis, Debye-Ang**2):
  XXX=            -21.6607  YYY=            -48.3852  ZZZ=             -2.6355  XYY=              0.7811
  XXY=             -6.0475  XXZ=             -0.6562  XZZ=             -4.7522  YZZ=              6.4945
  YYZ=            -12.3098  XYZ=             -9.4830
 Hexadecapole moment (field-independent basis, Debye-Ang**3):
 XXXX=          -1439.4265 YYYY=          -1130.4487 ZZZZ=           -218.5083 XXXY=             -7.0284
 XXXZ=             26.3137 YYYX=            -32.3488 YYYZ=             -9.5178 ZZZX=              8.3138
 ZZZY=             -0.0447 XXYY=           -428.3711 XXZZ=           -323.3194 YYZZ=           -224.5717
 XXYZ=              3.5097 YYXZ=             -8.3124 ZZXY=             -0.6982
 N-N= 7.813649770949D+02 E-N=-3.076697809751D+03  KE= 6.430133087094D+02
 No NMR shielding tensors so no spin-rotation constants.
 Leave Link  601 at Mon Aug  7 13:01:57 2023, MaxMem=   458752000 cpu:         0.2
 (Enter /opt/apps/apps/binapps/gaussian/g09d01_em64t/g09/l602.exe)
 FitSet:  NAtFit=    21 NAtPot=    21 NAtFrz=     0 MDM=    25 TotChg=   0.00000
 Merz-Kollman atomic radii used.

 **********************************************************************

            Electrostatic Properties Using The SCF Density

 **********************************************************************

       Atomic Center    1 is at   2.317892  0.398110  0.147701
       Atomic Center    2 is at   0.888265 -1.848142 -0.534510
       Atomic Center    3 is at   2.873748 -0.854124  0.264115
       Atomic Center    4 is at   2.157478 -2.020586 -0.130348
       Atomic Center    5 is at  -3.449690 -0.406994 -0.142938
       Atomic Center    6 is at   0.943020  0.566075 -0.113172
       Atomic Center    7 is at   0.222815 -0.604831 -0.450694
       Atomic Center    8 is at   0.841845  2.853246  0.643815
       Atomic Center    9 is at  -1.793767 -1.233277  1.410398
       Atomic Center   10 is at  -0.780330  2.146753 -0.701961
       Atomic Center   11 is at   0.300593  1.936697  0.036899
       Atomic Center   12 is at  -2.015363 -0.798899  0.284810
       Atomic Center   13 is at  -1.105764 -0.426790 -0.668089
       Atomic Center   14 is at  -1.041259  1.191835 -0.853036
       Atomic Center   15 is at   2.905197  1.315465  0.265118
       Atomic Center   16 is at   0.264454 -2.691155 -0.760667
       Atomic Center   17 is at   3.872654 -0.951478  0.592055
       Atomic Center   18 is at   2.665370 -2.924283 -0.244994
       Atomic Center   19 is at  -4.091390 -0.691840  0.661485
       Atomic Center   20 is at  -3.594422  0.692736 -0.243272
       Atomic Center   21 is at  -3.709022 -0.864570 -1.061175
    1044 points will be used for fitting atomic charges
 Fitting point charges to electrostatic potential
 Charges from ESP fit, RMS=   0.00114 RRMS=   0.05878:
 ESP charges:
               1
     1  C   -0.118741
     2  C   -0.218165
     3  C   -0.116690
     4  C   -0.072329
     5  C   -0.432417
     6  C   -0.182956
     7  C    0.270790
     8  O   -0.488313
     9  O   -0.438620
    10  O   -0.500711
    11  C    0.671124
    12  C    0.639829
    13  O   -0.336605
    14  H    0.335265
    15  H    0.150128
    16  H    0.151429
    17  H    0.128018
    18  H    0.139918
    19  H    0.139703
    20  H    0.141555
    21  H    0.137791
 Sum of ESP charges =   0.00000
 ESP charges with hydrogens summed into heavy atoms:
               1
     1  C    0.031387
     2  C   -0.066736
     3  C    0.011327
     4  C    0.067589
     5  C   -0.013368
     6  C   -0.182956
     7  C    0.270790
     8  O   -0.488313
     9  O   -0.438620
    10  O   -0.165446
    11  C    0.671124
    12  C    0.639829
    13  O   -0.336605
 Charge=   0.00000 Dipole=    -0.6037    -4.5329    -2.4958 Tot=     5.2097
 -----------------------------------------------------------------

              Electrostatic Properties (Atomic Units)

 -----------------------------------------------------------------
    Center     Electric         -------- Electric Field --------
               Potential          X             Y             Z
 -----------------------------------------------------------------
    1 Atom    -14.714663
    2 Atom    -14.713362
    3 Atom    -14.718672
    4 Atom    -14.715282
    5 Atom    -14.708509
    6 Atom    -14.701057
    7 Atom    -14.641257
    8 Atom    -22.340222
    9 Atom    -22.293189
   10 Atom    -22.274508
   11 Atom    -14.605364
   12 Atom    -14.564591
   13 Atom    -22.205859
   14 Atom     -0.946406
   15 Atom     -1.091542
   16 Atom     -1.080602
   17 Atom     -1.093193
   18 Atom     -1.080213
   19 Atom     -1.087672
   20 Atom     -1.068908
   21 Atom     -1.076839
 -----------------------------------------------------------------
 Leave Link  602 at Mon Aug  7 13:01:57 2023, MaxMem=   458752000 cpu:         0.2
 (Enter /opt/apps/apps/binapps/gaussian/g09d01_em64t/g09/l701.exe)
 Compute integral first derivatives.
 ... and contract with generalized density number  0.
 R6Disp: Adding Grimme-D3 dispersion energy 1st derivatives to the gradient.
 Leave Link  701 at Mon Aug  7 13:01:57 2023, MaxMem=   458752000 cpu:         0.1
 (Enter /opt/apps/apps/binapps/gaussian/g09d01_em64t/g09/l702.exe)
 L702 exits ... SP integral derivatives will be done elsewhere.
 Leave Link  702 at Mon Aug  7 13:01:57 2023, MaxMem=   458752000 cpu:         0.0
 (Enter /opt/apps/apps/binapps/gaussian/g09d01_em64t/g09/l703.exe)
 Compute integral first derivatives, UseDBF=F ICtDFT=           0.
 Integral derivatives from FoFJK, PRISM(SPDF).
 Calling FoFJK, ICntrl=      2127 FMM=F ISym2X=0 I1Cent= 0 IOpClX= 0 NMat=1 NMatS=1 NMatT=0.
 FoFJK:  IHMeth= 1 ICntrl=    2127 DoSepK=F KAlg= 0 I1Cent=   0 FoldK=F
 IRaf=         0 NMat=   1 IRICut=       1 DoRegI=T DoRafI=F ISym2E= 0.
 FoFCou: FMM=F IPFlag=           0 FMFlag=      100000 FMFlg1=         800
         NFxFlg=           0 DoJE=F BraDBF=F KetDBF=F FulRan=T
         wScrn=  0.000000 ICntrl=    2127 IOpCl=  0 I1Cent=           0 NGrid=           0
         NMat0=    1 NMatS0=      1 NMatT0=    0 NMatD0=    1 NMtDS0=    0 NMtDT0=    0
 Symmetry not used in FoFCou.
 Leave Link  703 at Mon Aug  7 13:02:29 2023, MaxMem=   458752000 cpu:        31.2
 (Enter /opt/apps/apps/binapps/gaussian/g09d01_em64t/g09/l716.exe)
 Dipole        =-2.38756240D-01-1.76188263D+00-9.84384754D-01
 ***** Axes restored to original set *****
 -------------------------------------------------------------------
 Center     Atomic                   Forces (Hartrees/Bohr)
 Number     Number              X              Y              Z
 -------------------------------------------------------------------
      1        6           0.004214591   -0.018568424   -0.012118431
      2        6          -0.053362221   -0.032312097   -0.014565856
      3        6          -0.018910108    0.004810492    0.015633871
      4        6           0.053645008   -0.029749383   -0.012925735
      5        6           0.033716034   -0.002110676   -0.009747887
      6        6          -0.011162747    0.013038521    0.002074026
      7        6           0.059174438    0.017819094   -0.006349194
      8        8          -0.016783300    0.013430804    0.007853779
      9        8           0.008720248   -0.015193182    0.045468699
     10        8          -0.029855047    0.017514646    0.000040719
     11        6           0.055371144   -0.004920832   -0.001107320
     12        6          -0.027081741   -0.008504527   -0.059817713
     13        8          -0.032476876    0.003926285    0.010587528
     14        1          -0.002904371   -0.033687515    0.006194916
     15        1          -0.004572034    0.007336338   -0.006417406
     16        1          -0.009355651    0.003912793    0.008069658
     17        1           0.019904150    0.011973800    0.002844887
     18        1          -0.004128639    0.032966510    0.005823452
     19        1          -0.013547623    0.007194570   -0.009140191
     20        1           0.004807434    0.011628814    0.007030376
     21        1          -0.015412692   -0.000506030    0.020567822
 -------------------------------------------------------------------
 Cartesian Forces:  Max     0.059817713 RMS     0.022415578
 Z-matrix is all fixed cartesians, so copy forces.
 Leave Link  716 at Mon Aug  7 13:02:29 2023, MaxMem=   458752000 cpu:         0.0
 (Enter /opt/apps/apps/binapps/gaussian/g09d01_em64t/g09/l103.exe)

 GradGradGradGradGradGradGradGradGradGradGradGradGradGradGradGradGradGrad
 Berny optimization.
 Search for a local minimum.
 Step number   1 out of a maximum of    2
 All quantities printed in internal units (Hartrees-Bohrs-Radians)
 Second derivative matrix not updated -- first step.
 ITU=  0
     Eigenvalues ---    0.00077   0.00088   0.00109   0.00212   0.00285
     Eigenvalues ---    0.00595   0.01016   0.01481   0.01569   0.02676
     Eigenvalues ---    0.02693   0.03385   0.03747   0.04138   0.05120
     Eigenvalues ---    0.05521   0.07062   0.07378   0.07687   0.08181
     Eigenvalues ---    0.08682   0.08932   0.10686   0.12540   0.12860
     Eigenvalues ---    0.13304   0.13826   0.14701   0.15471   0.19021
     Eigenvalues ---    0.19394   0.22404   0.24828   0.28697   0.30921
     Eigenvalues ---    0.33910   0.39900   0.44044   0.46037   0.51140
     Eigenvalues ---    0.65305   0.70140   0.77629   0.86249   0.96432
     Eigenvalues ---    0.98860   1.00281   1.09567   1.17968   1.21341
     Eigenvalues ---    1.38029   1.44906   1.49063   1.58683   1.76746
     Eigenvalues ---    2.17650   2.20825
 Quadratic step=3.985D+00 exceeds max=3.000D-01 adjusted using Lamda=-1.320D-01.
 Angle between NR and scaled steps=  70.72 degrees.
 Angle between quadratic step and forces=  45.93 degrees.
 Linear search not attempted -- first point.
 TrRot=  0.000000  0.000000  0.000000  0.000000  0.000000  0.000000
 MatCor failed.
 Variable       Old X    -DE/DX   Delta X   Delta X   Delta X     New X
                                 (Linear)    (Quad)   (Total)
    X1       27.10817   0.00421   0.00000   0.01450   0.01450  27.12267
    Y1       24.48699  -0.01857   0.00000  -0.00746  -0.00746  24.47953
    Z1       23.84548  -0.01212   0.00000  -0.03307  -0.03307  23.81241
    X2       22.56083  -0.05336   0.00000  -0.05300  -0.05300  22.50783
    Y2       26.58362  -0.03231   0.00000  -0.01997  -0.01997  26.56366
    Z2       25.22563  -0.01457   0.00000  -0.04704  -0.04704  25.17859
    X3       26.91529  -0.01891   0.00000   0.02537   0.02537  26.94066
    Y3       27.02409   0.00481   0.00000  -0.00708  -0.00708  27.01701
    Z3       24.37219   0.01563   0.00000   0.03117   0.03117  24.40336
    X4       24.58677   0.05365   0.00000   0.03929   0.03929  24.62606
    Y4       28.11169  -0.02975   0.00000  -0.04000  -0.04000  28.07169
    Z4       25.17330  -0.01293   0.00000  -0.00020  -0.00020  25.17310
    X5       16.84745   0.03372   0.00000   0.00417   0.00417  16.85162
    Y5       20.96719  -0.00211   0.00000  -0.00708  -0.00708  20.96011
    Z5       21.91245  -0.00975   0.00000  -0.01247  -0.01247  21.89998
    X6       24.94043  -0.01116   0.00000   0.01246   0.01246  24.95289
    Y6       22.96021   0.01304   0.00000   0.01423   0.01423  22.97444
    Z6       23.59260   0.00207   0.00000  -0.00251  -0.00251  23.59009
    X7       22.61556   0.05917   0.00000   0.02738   0.02738  22.64294
    Y7       24.08337   0.01782   0.00000   0.00946   0.00946  24.09283
    Z7       24.29160  -0.00635   0.00000  -0.03367  -0.03367  24.25793
    X8       27.03258  -0.01678   0.00000   0.01343   0.01343  27.04601
    Y8       19.60214   0.01343   0.00000   0.03228   0.03228  19.63442
    Z8       21.33209   0.00785   0.00000  -0.00157  -0.00157  21.33051
    X9       19.20101   0.00872   0.00000   0.02336   0.02336  19.22438
    Y9       24.50113  -0.01519   0.00000   0.01423   0.01423  24.51536
    Z9       20.23355   0.04547   0.00000   0.06946   0.06946  20.30301
   X10       23.39848  -0.02986   0.00000  -0.03278  -0.03278  23.36570
   Y10       18.68734   0.01751   0.00000   0.02058   0.02058  18.70792
   Z10       23.23039   0.00004   0.00000  -0.03707  -0.03707  23.19332
   X11       25.16461   0.05537   0.00000   0.07296   0.07296  25.23757
   Y11       20.30955  -0.00492   0.00000  -0.00421  -0.00421  20.30534
   Z11       22.50328  -0.00111   0.00000   0.06758   0.06758  22.57085
   X12       18.95141  -0.02708   0.00000  -0.02778  -0.02778  18.92364
   Y12       22.99635  -0.00850   0.00000  -0.05995  -0.05995  22.93640
   Z12       21.97907  -0.05982   0.00000  -0.05749  -0.05749  21.92159
   X13       20.54366  -0.03248   0.00000  -0.06797  -0.06797  20.47569
   Y13       22.60181   0.00393   0.00000   0.03686   0.03686  22.63867
   Z13       23.97925   0.01059   0.00000   0.01736   0.01736  23.99661
   X14       22.06867  -0.00290   0.00000  -0.07591  -0.07591  21.99276
   Y14       19.93586  -0.03369   0.00000  -0.11896  -0.11896  19.81691
   Z14       23.73414   0.00619   0.00000   0.05949   0.05949  23.79362
   X15       28.93094  -0.00457   0.00000   0.00218   0.00218  28.93312
   Y15       23.54419   0.00734   0.00000   0.01860   0.01860  23.56279
   Z15       23.57194  -0.00642   0.00000  -0.05646  -0.05646  23.51549
   X16       20.71848  -0.00936   0.00000  -0.04691  -0.04691  20.67158
   Y16       27.31653   0.00391   0.00000   0.00182   0.00182  27.31835
   Z16       25.64844   0.00807   0.00000   0.01393   0.01393  25.66237
   X17       28.54693   0.01990   0.00000   0.05376   0.05376  28.60070
   Y17       28.17019   0.01197   0.00000   0.02215   0.02215  28.19234
   Z17       24.29899   0.00284   0.00000   0.02929   0.02929  24.32828
   X18       24.57336  -0.00413   0.00000  -0.00208  -0.00208  24.57129
   Y18       29.91878   0.03297   0.00000   0.04403   0.04403  29.96280
   Z18       25.95989   0.00582   0.00000  -0.02052  -0.02052  25.93938
   X19       15.73674  -0.01355   0.00000  -0.04488  -0.04488  15.69186
   Y19       21.35487   0.00719   0.00000   0.01306   0.01306  21.36793
   Z19       20.27322  -0.00914   0.00000  -0.01103  -0.01103  20.26219
   X20       17.58059   0.00481   0.00000   0.03262   0.03262  17.61321
   Y20       19.01758   0.01163   0.00000   0.02462   0.02462  19.04220
   Z20       21.61053   0.00703   0.00000   0.02840   0.02840  21.63893
   X21       15.78006  -0.01541   0.00000  -0.02046  -0.02046  15.75960
   Y21       20.98816  -0.00051   0.00000  -0.00036  -0.00036  20.98781
   Z21       23.60333   0.02057   0.00000   0.03546   0.03546  23.63879
         Item               Value     Threshold  Converged?
 Maximum Force            0.059818     0.000450     NO 
 RMS     Force            0.022416     0.000300     NO 
 Maximum Displacement     0.118958     0.001800     NO 
 RMS     Displacement     0.037823     0.001200     NO 
 Predicted change in Energy=-2.452077D-02
 GradGradGradGradGradGradGradGradGradGradGradGradGradGradGradGradGradGrad

 Leave Link  103 at Mon Aug  7 13:02:29 2023, MaxMem=   458752000 cpu:         0.0
 (Enter /opt/apps/apps/binapps/gaussian/g09d01_em64t/g09/l9999.exe)
 1\1\GINC-NODE616\Force\RB3LYP\6-31G(d)\C9H8O4\MBDX6CW3\07-Aug-2023\0\\
 #p b3lyp/6-31g* pop=mk empiricaldispersion=gd3 int(ultrafine) force\\a
 spirin\\0,1\C,14.34502482,12.9579556,12.6184845\C,11.93867445,14.06744
 838,13.34882617\C,14.24295902,14.30053234,12.89720654\C,13.01075578,14
 .87606525,13.32113504\C,8.91528726,11.09535933,11.59557104\C,13.197908
 4,12.1500206,12.4846673\C,11.96763873,12.7443707,12.85456181\O,14.3050
 2772,10.37300706,11.28845453\O,10.16073942,12.96543956,10.70713162\O,1
 2.38194346,9.88891304,12.29299188\C,13.31653595,10.74735284,11.9082224
 4\C,10.02865672,12.16914535,11.6308248\O,10.87123752,11.96036339,12.68
 927455\H,11.67823911,10.54960489,12.55956531\H,15.30959249,12.45904684
 ,12.47373581\H,10.96374989,14.45528746,13.57257009\H,15.10638714,14.90
 702152,12.85847068\H,13.00366282,15.83233476,13.73738408\H,8.32752645,
 11.30051136,10.72812438\H,9.30324912,10.06367087,11.43580079\H,8.35044
 563,11.10645771,12.49034405\\Version=ES64L-G09RevD.01\State=1-A\HF=-64
 8.6726759\RMSD=6.237e-09\RMSF=2.242e-02\Dipole=-1.1804158,1.1158149,1.
 2214024\Quadrupole=4.572045,-1.3310537,-3.2409913,9.5572146,1.6270213,
 2.1768415\PG=C01 [X(C9H8O4)]\\@


 OPTIMIST - A PESSIMIST WHO LACKS EXPERIENCE
 Job cpu time:       0 days  0 hours  2 minutes 33.5 seconds.
 File lengths (MBytes):  RWF=     20 Int=      0 D2E=      0 Chk=      3 Scr=      1
 Normal termination of Gaussian 09 at Mon Aug  7 13:02:29 2023.
