 Entering Gaussian System, Link 0=/opt/apps/apps/binapps/gaussian/g09d01_em64t/g09/g09
 Initial command:
 /opt/apps/apps/binapps/gaussian/g09d01_em64t/g09/l1.exe "/net/scratch2/mbdx6cw3/aspirin/300K-meta/dft/qm_input/gau_temp_18/Gau-2475.inp" -scrdir="/net/scratch2/mbdx6cw3/aspirin/300K-meta/dft/qm_input/gau_temp_18/"
 Entering Link 1 = /opt/apps/apps/binapps/gaussian/g09d01_em64t/g09/l1.exe PID=      2479.
  
 Copyright (c) 1988,1990,1992,1993,1995,1998,2003,2009,2013,
            Gaussian, Inc.  All Rights Reserved.
  
 This is part of the Gaussian(R) 09 program.  It is based on
 the Gaussian(R) 03 system (copyright 2003, Gaussian, Inc.),
 the Gaussian(R) 98 system (copyright 1998, Gaussian, Inc.),
 the Gaussian(R) 94 system (copyright 1995, Gaussian, Inc.),
 the Gaussian 92(TM) system (copyright 1992, Gaussian, Inc.),
 the Gaussian 90(TM) system (copyright 1990, Gaussian, Inc.),
 the Gaussian 88(TM) system (copyright 1988, Gaussian, Inc.),
 the Gaussian 86(TM) system (copyright 1986, Carnegie Mellon
 University), and the Gaussian 82(TM) system (copyright 1983,
 Carnegie Mellon University). Gaussian is a federally registered
 trademark of Gaussian, Inc.
  
 This software contains proprietary and confidential information,
 including trade secrets, belonging to Gaussian, Inc.
  
 This software is provided under written license and may be
 used, copied, transmitted, or stored only in accord with that
 written license.
  
 The following legend is applicable only to US Government
 contracts under FAR:
  
                    RESTRICTED RIGHTS LEGEND
  
 Use, reproduction and disclosure by the US Government is
 subject to restrictions as set forth in subparagraphs (a)
 and (c) of the Commercial Computer Software - Restricted
 Rights clause in FAR 52.227-19.
  
 Gaussian, Inc.
 340 Quinnipiac St., Bldg. 40, Wallingford CT 06492
  
  
 ---------------------------------------------------------------
 Warning -- This program may not be used in any manner that
 competes with the business of Gaussian, Inc. or will provide
 assistance to any competitor of Gaussian, Inc.  The licensee
 of this program is prohibited from giving any competitor of
 Gaussian, Inc. access to this program.  By using this program,
 the user acknowledges that Gaussian, Inc. is engaged in the
 business of creating and licensing software in the field of
 computational chemistry and represents and warrants to the
 licensee that it is not a competitor of Gaussian, Inc. and that
 it will not use this program in any manner prohibited above.
 ---------------------------------------------------------------
  

 Cite this work as:
 Gaussian 09, Revision D.01,
 M. J. Frisch, G. W. Trucks, H. B. Schlegel, G. E. Scuseria, 
 M. A. Robb, J. R. Cheeseman, G. Scalmani, V. Barone, B. Mennucci, 
 G. A. Petersson, H. Nakatsuji, M. Caricato, X. Li, H. P. Hratchian, 
 A. F. Izmaylov, J. Bloino, G. Zheng, J. L. Sonnenberg, M. Hada, 
 M. Ehara, K. Toyota, R. Fukuda, J. Hasegawa, M. Ishida, T. Nakajima, 
 Y. Honda, O. Kitao, H. Nakai, T. Vreven, J. A. Montgomery, Jr., 
 J. E. Peralta, F. Ogliaro, M. Bearpark, J. J. Heyd, E. Brothers, 
 K. N. Kudin, V. N. Staroverov, T. Keith, R. Kobayashi, J. Normand, 
 K. Raghavachari, A. Rendell, J. C. Burant, S. S. Iyengar, J. Tomasi, 
 M. Cossi, N. Rega, J. M. Millam, M. Klene, J. E. Knox, J. B. Cross, 
 V. Bakken, C. Adamo, J. Jaramillo, R. Gomperts, R. E. Stratmann, 
 O. Yazyev, A. J. Austin, R. Cammi, C. Pomelli, J. W. Ochterski, 
 R. L. Martin, K. Morokuma, V. G. Zakrzewski, G. A. Voth, 
 P. Salvador, J. J. Dannenberg, S. Dapprich, A. D. Daniels, 
 O. Farkas, J. B. Foresman, J. V. Ortiz, J. Cioslowski, 
 and D. J. Fox, Gaussian, Inc., Wallingford CT, 2013.
 
 ******************************************
 Gaussian 09:  ES64L-G09RevD.01 24-Apr-2013
                 7-Aug-2023 
 ******************************************
 %chk=./gau_temp_18/mol_chk.chk
 %mem=3500MB
 -------------------------------------------------------------------
 #p b3lyp/6-31g* pop=mk empiricaldispersion=gd3 int(ultrafine) force
 -------------------------------------------------------------------
 1/10=7,30=1,38=1/1,3;
 2/12=2,17=6,18=5,40=1/2;
 3/5=1,6=6,7=1,11=2,16=1,25=1,30=1,71=1,74=-5,75=-5,124=31/1,2,3;
 4//1;
 5/5=2,38=5/2;
 6/7=2,8=2,9=2,10=2,15=8,20=1,28=1/1,2;
 7/29=1/1,2,3,16;
 1/10=7,30=1/3;
 99//99;
 Leave Link    1 at Mon Aug  7 13:10:17 2023, MaxMem=   458752000 cpu:         0.0
 (Enter /opt/apps/apps/binapps/gaussian/g09d01_em64t/g09/l101.exe)
 -------
 aspirin
 -------
 Symbolic Z-matrix:
 Charge =  0 Multiplicity = 1
 C                     14.30122   12.72823   11.1883 
 C                     11.59698   13.21135   10.7775 
 C                     13.89631   13.68613   10.29377 
 C                     12.52436   13.8074   9.91499 
 C                     9.14445   11.12447   13.78154 
 C                     13.31576   12.20421   12.12305 
 C                     11.98048   12.44143   11.89919 
 O                     14.96307   11.30524   13.46158 
 O                     9.13154   12.15811   11.56801 
 O                     13.06358   11.56914   14.42395 
 C                     13.84329   11.6654   13.35099 
 C                     9.7022    11.90727   12.60442 
 O                     11.04915   11.98682   12.75088 
 H                     12.23251   11.86602   14.01286 
 H                     15.41569   12.57992   11.40293 
 H                     10.65635   13.48144   10.62334 
 H                     14.63954   14.24499   9.80635 
 H                     12.16583   14.49233   9.15878 
 H                     8.07718   11.36861   13.95113 
 H                     9.21325   10.0598   13.39381 
 H                     9.73168   11.29577   14.67975 
 
 NAtoms=     21 NQM=       21 NQMF=       0 NMMI=      0 NMMIF=      0
                NMic=       0 NMicF=      0.
                    Isotopes and Nuclear Properties:
 (Nuclear quadrupole moments (NQMom) in fm**2, nuclear magnetic moments (NMagM)
  in nuclear magnetons)

  Atom         1           2           3           4           5           6           7           8           9          10
 IAtWgt=          12          12          12          12          12          12          12          16          16          16
 AtmWgt=  12.0000000  12.0000000  12.0000000  12.0000000  12.0000000  12.0000000  12.0000000  15.9949146  15.9949146  15.9949146
 NucSpn=           0           0           0           0           0           0           0           0           0           0
 AtZEff=   0.0000000   0.0000000   0.0000000   0.0000000   0.0000000   0.0000000   0.0000000   0.0000000   0.0000000   0.0000000
 NQMom=    0.0000000   0.0000000   0.0000000   0.0000000   0.0000000   0.0000000   0.0000000   0.0000000   0.0000000   0.0000000
 NMagM=    0.0000000   0.0000000   0.0000000   0.0000000   0.0000000   0.0000000   0.0000000   0.0000000   0.0000000   0.0000000
 AtZNuc=   6.0000000   6.0000000   6.0000000   6.0000000   6.0000000   6.0000000   6.0000000   8.0000000   8.0000000   8.0000000

  Atom        11          12          13          14          15          16          17          18          19          20
 IAtWgt=          12          12          16           1           1           1           1           1           1           1
 AtmWgt=  12.0000000  12.0000000  15.9949146   1.0078250   1.0078250   1.0078250   1.0078250   1.0078250   1.0078250   1.0078250
 NucSpn=           0           0           0           1           1           1           1           1           1           1
 AtZEff=   0.0000000   0.0000000   0.0000000   0.0000000   0.0000000   0.0000000   0.0000000   0.0000000   0.0000000   0.0000000
 NQMom=    0.0000000   0.0000000   0.0000000   0.0000000   0.0000000   0.0000000   0.0000000   0.0000000   0.0000000   0.0000000
 NMagM=    0.0000000   0.0000000   0.0000000   2.7928460   2.7928460   2.7928460   2.7928460   2.7928460   2.7928460   2.7928460
 AtZNuc=   6.0000000   6.0000000   8.0000000   1.0000000   1.0000000   1.0000000   1.0000000   1.0000000   1.0000000   1.0000000

  Atom        21
 IAtWgt=           1
 AtmWgt=   1.0078250
 NucSpn=           1
 AtZEff=   0.0000000
 NQMom=    0.0000000
 NMagM=    2.7928460
 AtZNuc=   1.0000000
 Leave Link  101 at Mon Aug  7 13:10:17 2023, MaxMem=   458752000 cpu:         0.1
 (Enter /opt/apps/apps/binapps/gaussian/g09d01_em64t/g09/l103.exe)

 GradGradGradGradGradGradGradGradGradGradGradGradGradGradGradGradGradGrad
 Berny optimization.
 Initialization pass.
 Trust Radius=3.00D-01 FncErr=1.00D-07 GrdErr=1.00D-07
 Number of steps in this run=      2 maximum allowed number of steps=      2.
 GradGradGradGradGradGradGradGradGradGradGradGradGradGradGradGradGradGrad

 Leave Link  103 at Mon Aug  7 13:10:17 2023, MaxMem=   458752000 cpu:         0.0
 (Enter /opt/apps/apps/binapps/gaussian/g09d01_em64t/g09/l202.exe)
                          Input orientation:                          
 ---------------------------------------------------------------------
 Center     Atomic      Atomic             Coordinates (Angstroms)
 Number     Number       Type             X           Y           Z
 ---------------------------------------------------------------------
      1          6           0       14.301220   12.728235   11.188304
      2          6           0       11.596975   13.211349   10.777497
      3          6           0       13.896307   13.686128   10.293770
      4          6           0       12.524359   13.807402    9.914989
      5          6           0        9.144446   11.124474   13.781543
      6          6           0       13.315759   12.204208   12.123046
      7          6           0       11.980476   12.441435   11.899190
      8          8           0       14.963073   11.305240   13.461579
      9          8           0        9.131541   12.158108   11.568005
     10          8           0       13.063583   11.569141   14.423949
     11          6           0       13.843288   11.665403   13.350995
     12          6           0        9.702200   11.907266   12.604418
     13          8           0       11.049151   11.986823   12.750883
     14          1           0       12.232509   11.866015   14.012862
     15          1           0       15.415691   12.579917   11.402930
     16          1           0       10.656347   13.481441   10.623342
     17          1           0       14.639540   14.244989    9.806345
     18          1           0       12.165833   14.492331    9.158776
     19          1           0        8.077180   11.368606   13.951128
     20          1           0        9.213247   10.059803   13.393810
     21          1           0        9.731676   11.295767   14.679750
 ---------------------------------------------------------------------
                    Distance matrix (angstroms):
                    1          2          3          4          5
     1  C    0.000000
     2  C    2.777607   0.000000
     3  C    1.371753   2.397151   0.000000
     4  C    2.437862   1.399729   1.428434   0.000000
     5  C    5.990764   4.403889   6.427038   5.794148   0.000000
     6  C    1.455843   2.403966   2.424742   2.841137   4.616957
     7  C    2.444067   1.413519   2.792318   2.469560   3.649755
     8  O    2.762379   4.708307   4.103855   4.978598   5.830221
     9  O    5.214864   2.795101   5.163479   4.118720   2.443013
    10  O    3.653031   4.259624   4.715234   5.062735   3.996255
    11  C    2.452864   3.749502   3.665073   4.258388   4.749431
    12  C    4.881634   2.937421   5.108226   4.336833   1.519697
    13  O    3.683381   2.386174   4.126904   3.678728   2.331053
    14  H    3.605706   3.561097   4.462363   4.543867   3.184262
    15  H    1.144599   3.920773   2.182308   3.475700   6.863281
    16  H    3.764519   0.990704   3.263105   2.024224   4.220826
    17  H    2.079619   3.356895   1.049907   2.162701   7.465646
    18  H    3.433788   2.141207   2.220971   1.081446   6.468478
    19  H    6.944095   5.084937   7.253234   6.481939   1.107888
    20  H    6.154044   4.739145   6.685173   6.091811   1.135163
    21  H    5.926457   4.730367   6.503445   6.067153   1.086719
                    6          7          8          9         10
     6  C    0.000000
     7  C    1.374542   0.000000
     8  O    2.305094   3.553573   0.000000
     9  O    4.221123   2.882081   6.190296   0.000000
    10  O    2.400220   2.882434   2.145660   4.895330   0.000000
    11  C    1.440992   2.485967   1.181466   5.061855   1.329826
    12  C    3.657554   2.444018   5.364134   1.209432   3.837176
    13  O    2.361979   1.341424   4.035892   2.259595   2.651706
    14  H    2.204362   2.205049   2.841542   3.959627   0.973556
    15  H    2.251542   3.473637   2.463270   6.300454   3.959878
    16  H    3.309517   2.112515   5.598153   2.229043   4.888383
    17  H    3.359209   3.834505   4.701865   6.147892   5.564716
    18  H    3.917235   3.427885   6.041209   4.523263   6.088763
    19  H    5.610955   4.538406   6.903563   2.722914   5.012783
    20  H    4.800409   3.945076   5.883554   2.782647   4.261969
    21  H    4.495292   3.755153   5.371363   3.284319   3.352876
                   11         12         13         14         15
    11  C    0.000000
    12  C    4.214794   0.000000
    13  O    2.875873   1.357225   0.000000
    14  H    1.752976   2.896183   1.734221   0.000000
    15  H    2.665285   5.877075   4.608189   4.177805   0.000000
    16  H    4.571070   2.704271   2.629564   4.072190   4.906308
    17  H    4.455651   6.137710   5.163381   5.398898   2.433919
    18  H    5.327295   4.962306   4.519710   5.519432   4.388067
    19  H    5.804847   2.178181   3.264260   4.185449   7.862209
    20  H    4.900721   2.067689   2.738121   3.572334   6.984618
    21  H    4.336771   2.163748   2.435945   2.650299   6.685403
                   16         17         18         19         20
    16  H    0.000000
    17  H    4.137187   0.000000
    18  H    2.333537   2.568998   0.000000
    19  H    4.710661   8.277521   7.031455   0.000000
    20  H    4.633103   7.735008   6.804453   1.820499   0.000000
    21  H    4.699642   7.518984   6.828198   1.809296   1.857423
                   21
    21  H    0.000000
 Stoichiometry    C9H8O4
 Framework group  C1[X(C9H8O4)]
 Deg. of freedom    57
 Full point group                 C1      NOp   1
 Largest Abelian subgroup         C1      NOp   1
 Largest concise Abelian subgroup C1      NOp   1
                         Standard orientation:                         
 ---------------------------------------------------------------------
 Center     Atomic      Atomic             Coordinates (Angstroms)
 Number     Number       Type             X           Y           Z
 ---------------------------------------------------------------------
      1          6           0       -2.405773    0.466202    0.240803
      2          6           0       -0.003481    1.818636   -0.098337
      3          6           0       -2.399936    1.782944   -0.143726
      4          6           0       -1.195921    2.551265   -0.122431
      5          6           0        3.408393   -0.962720    0.033650
      6          6           0       -1.155243   -0.275178    0.163274
      7          6           0        0.026489    0.409418    0.007694
      8          8           0       -2.260686   -2.290853    0.332107
      9          8           0        2.729795    1.371381    0.278171
     10          8           0       -0.278960   -2.414805   -0.481068
     11          6           0       -1.282867   -1.703721    0.023873
     12          6           0        2.463629    0.226880   -0.008184
     13          8           0        1.193546   -0.245524   -0.084221
     14          1           0        0.367500   -1.691947   -0.566953
     15          1           0       -3.395253   -0.104504    0.313825
     16          1           0        0.810311    2.347158   -0.298090
     17          1           0       -3.325299    2.239772   -0.336895
     18          1           0       -1.151879    3.609436   -0.341202
     19          1           0        4.420654   -0.678639   -0.315693
     20          1           0        3.457006   -1.169560    1.148750
     21          1           0        3.015664   -1.795655   -0.543361
 ---------------------------------------------------------------------
 Rotational constants (GHZ):      1.1061574      0.7145729      0.4423790
 Leave Link  202 at Mon Aug  7 13:10:17 2023, MaxMem=   458752000 cpu:         0.0
 (Enter /opt/apps/apps/binapps/gaussian/g09d01_em64t/g09/l301.exe)
 Standard basis: 6-31G(d) (6D, 7F)
 Ernie: Thresh=  0.10000D-02 Tol=  0.10000D-05 Strict=F.
 There are   211 symmetry adapted cartesian basis functions of A   symmetry.
 There are   211 symmetry adapted basis functions of A   symmetry.
   211 basis functions,   396 primitive gaussians,   211 cartesian basis functions
    47 alpha electrons       47 beta electrons
       nuclear repulsion energy       778.2256966597 Hartrees.
 IExCor=  402 DFT=T Ex+Corr=B3LYP ExCW=0 ScaHFX=  0.200000
 ScaDFX=  0.800000  0.720000  1.000000  0.810000 ScalE2=  1.000000  1.000000
 IRadAn=      5 IRanWt=     -1 IRanGd=            0 ICorTp=0 IEmpDi=131
 NAtoms=   21 NActive=   21 NUniq=   21 SFac= 1.00D+00 NAtFMM=   60 NAOKFM=F Big=F
 Integral buffers will be    131072 words long.
 Raffenetti 2 integral format.
 Two-electron integral symmetry is turned on.
 R6Disp:  Grimme-D3 Dispersion energy=       -0.0174973837 Hartrees.
 Nuclear repulsion after empirical dispersion term =      778.2081992760 Hartrees.
 Leave Link  301 at Mon Aug  7 13:10:17 2023, MaxMem=   458752000 cpu:         0.0
 (Enter /opt/apps/apps/binapps/gaussian/g09d01_em64t/g09/l302.exe)
 NPDir=0 NMtPBC=     1 NCelOv=     1 NCel=       1 NClECP=     1 NCelD=      1
         NCelK=      1 NCelE2=     1 NClLst=     1 CellRange=     0.0.
 One-electron integrals computed using PRISM.
 NBasis=   211 RedAO= T EigKep=  6.03D-04  NBF=   211
 NBsUse=   211 1.00D-06 EigRej= -1.00D+00 NBFU=   211
 Precomputing XC quadrature grid using
 IXCGrd= 4 IRadAn=           5 IRanWt=          -1 IRanGd=           0 AccXCQ= 0.00D+00.
 Generated NRdTot=       0 NPtTot=           0 NUsed=           0 NTot=          32
 NSgBfM=   210   210   210   210   210 MxSgAt=    21 MxSgA2=    21.
 Leave Link  302 at Mon Aug  7 13:10:18 2023, MaxMem=   458752000 cpu:         0.6
 (Enter /opt/apps/apps/binapps/gaussian/g09d01_em64t/g09/l303.exe)
 DipDrv:  MaxL=1.
 Leave Link  303 at Mon Aug  7 13:10:18 2023, MaxMem=   458752000 cpu:         0.0
 (Enter /opt/apps/apps/binapps/gaussian/g09d01_em64t/g09/l401.exe)
 ExpMin= 1.61D-01 ExpMax= 5.48D+03 ExpMxC= 8.25D+02 IAcc=3 IRadAn=         5 AccDes= 0.00D+00
 Harris functional with IExCor=  402 and IRadAn=       5 diagonalized for initial guess.
 HarFok:  IExCor=  402 AccDes= 0.00D+00 IRadAn=         5 IDoV= 1 UseB2=F ITyADJ=14
 ICtDFT=  3500011 ScaDFX=  1.000000  1.000000  1.000000  1.000000
 FoFCou: FMM=F IPFlag=           0 FMFlag=      100000 FMFlg1=           0
         NFxFlg=           0 DoJE=T BraDBF=F KetDBF=T FulRan=T
         wScrn=  0.000000 ICntrl=     500 IOpCl=  0 I1Cent=   200000004 NGrid=           0
         NMat0=    1 NMatS0=      1 NMatT0=    0 NMatD0=    1 NMtDS0=    0 NMtDT0=    0
 Petite list used in FoFCou.
 Harris En= -648.694432118844    
 JPrj=0 DoOrth=F DoCkMO=F.
 Leave Link  401 at Mon Aug  7 13:10:25 2023, MaxMem=   458752000 cpu:         7.7
 (Enter /opt/apps/apps/binapps/gaussian/g09d01_em64t/g09/l502.exe)
 Closed shell SCF:
 Using DIIS extrapolation, IDIIS=  1040.
 Integral symmetry usage will be decided dynamically.
 Keep R1 ints in memory in canonical form, NReq=255049085.
 IVT=      154966 IEndB=      154966 NGot=   458752000 MDV=   208466874
 LenX=   208466874 LenY=   208421912
 Requested convergence on RMS density matrix=1.00D-08 within 128 cycles.
 Requested convergence on MAX density matrix=1.00D-06.
 Requested convergence on             energy=1.00D-06.
 No special actions if energy rises.
 FoFCou: FMM=F IPFlag=           0 FMFlag=           0 FMFlg1=           0
         NFxFlg=           0 DoJE=F BraDBF=F KetDBF=F FulRan=T
         wScrn=  0.000000 ICntrl=     600 IOpCl=  0 I1Cent=           0 NGrid=           0
         NMat0=    1 NMatS0=  22366 NMatT0=    0 NMatD0=    1 NMtDS0=    0 NMtDT0=    0
 Symmetry not used in FoFCou.
 Integral accuracy reduced to 1.0D-05 until final iterations.

 Cycle   1  Pass 0  IDiag  1:
 E= -648.297973631543    
 DIIS: error= 2.86D-02 at cycle   1 NSaved=   1.
 NSaved= 1 IEnMin= 1 EnMin= -648.297973631543     IErMin= 1 ErrMin= 2.86D-02
 ErrMax= 2.86D-02  0.00D+00 EMaxC= 1.00D-01 BMatC= 4.15D-01 BMatP= 4.15D-01
 IDIUse=3 WtCom= 7.14D-01 WtEn= 2.86D-01
 Coeff-Com:  0.100D+01
 Coeff-En:   0.100D+01
 Coeff:      0.100D+01
 Gap=     0.226 Goal=   None    Shift=    0.000
 GapD=    0.226 DampG=1.000 DampE=0.500 DampFc=0.5000 IDamp=-1.
 Damping current iteration by 5.00D-01
 RMSDP=7.56D-03 MaxDP=2.21D-01              OVMax= 2.59D-01

 Cycle   2  Pass 0  IDiag  1:
 E= -648.357097908928     Delta-E=       -0.059124277385 Rises=F Damp=T
 DIIS: error= 1.56D-02 at cycle   2 NSaved=   2.
 NSaved= 2 IEnMin= 2 EnMin= -648.357097908928     IErMin= 2 ErrMin= 1.56D-02
 ErrMax= 1.56D-02  0.00D+00 EMaxC= 1.00D-01 BMatC= 9.61D-02 BMatP= 4.15D-01
 IDIUse=3 WtCom= 8.44D-01 WtEn= 1.56D-01
 Coeff-Com:  0.273D+00 0.727D+00
 Coeff-En:   0.420D+00 0.580D+00
 Coeff:      0.296D+00 0.704D+00
 Gap=     0.192 Goal=   None    Shift=    0.000
 RMSDP=2.55D-03 MaxDP=7.92D-02 DE=-5.91D-02 OVMax= 2.39D-01

 Cycle   3  Pass 0  IDiag  1:
 E= -648.592341383819     Delta-E=       -0.235243474890 Rises=F Damp=F
 DIIS: error= 1.41D-02 at cycle   3 NSaved=   3.
 NSaved= 3 IEnMin= 3 EnMin= -648.592341383819     IErMin= 3 ErrMin= 1.41D-02
 ErrMax= 1.41D-02  0.00D+00 EMaxC= 1.00D-01 BMatC= 7.12D-02 BMatP= 9.61D-02
 IDIUse=3 WtCom= 8.59D-01 WtEn= 1.41D-01
 Coeff-Com:  0.102D+00 0.450D+00 0.448D+00
 Coeff-En:   0.000D+00 0.000D+00 0.100D+01
 Coeff:      0.878D-01 0.386D+00 0.526D+00
 Gap=     0.207 Goal=   None    Shift=    0.000
 RMSDP=1.61D-03 MaxDP=5.13D-02 DE=-2.35D-01 OVMax= 8.82D-02

 Cycle   4  Pass 0  IDiag  1:
 E= -648.643973219388     Delta-E=       -0.051631835569 Rises=F Damp=F
 DIIS: error= 5.99D-03 at cycle   4 NSaved=   4.
 NSaved= 4 IEnMin= 4 EnMin= -648.643973219388     IErMin= 4 ErrMin= 5.99D-03
 ErrMax= 5.99D-03  0.00D+00 EMaxC= 1.00D-01 BMatC= 1.36D-02 BMatP= 7.12D-02
 IDIUse=3 WtCom= 9.40D-01 WtEn= 5.99D-02
 Coeff-Com:  0.253D-01 0.789D-01 0.309D+00 0.587D+00
 Coeff-En:   0.000D+00 0.000D+00 0.176D+00 0.824D+00
 Coeff:      0.238D-01 0.742D-01 0.301D+00 0.601D+00
 Gap=     0.197 Goal=   None    Shift=    0.000
 RMSDP=5.22D-04 MaxDP=1.86D-02 DE=-5.16D-02 OVMax= 2.29D-02

 Cycle   5  Pass 0  IDiag  1:
 E= -648.654220291919     Delta-E=       -0.010247072531 Rises=F Damp=F
 DIIS: error= 1.11D-03 at cycle   5 NSaved=   5.
 NSaved= 5 IEnMin= 5 EnMin= -648.654220291919     IErMin= 5 ErrMin= 1.11D-03
 ErrMax= 1.11D-03  0.00D+00 EMaxC= 1.00D-01 BMatC= 6.31D-04 BMatP= 1.36D-02
 IDIUse=3 WtCom= 9.89D-01 WtEn= 1.11D-02
 Coeff-Com:  0.557D-02 0.324D-02 0.120D+00 0.323D+00 0.549D+00
 Coeff-En:   0.000D+00 0.000D+00 0.000D+00 0.000D+00 0.100D+01
 Coeff:      0.550D-02 0.320D-02 0.118D+00 0.319D+00 0.554D+00
 Gap=     0.199 Goal=   None    Shift=    0.000
 RMSDP=1.34D-04 MaxDP=3.94D-03 DE=-1.02D-02 OVMax= 4.55D-03

 Cycle   6  Pass 0  IDiag  1:
 E= -648.654683419934     Delta-E=       -0.000463128016 Rises=F Damp=F
 DIIS: error= 3.75D-04 at cycle   6 NSaved=   6.
 NSaved= 6 IEnMin= 6 EnMin= -648.654683419934     IErMin= 6 ErrMin= 3.75D-04
 ErrMax= 3.75D-04  0.00D+00 EMaxC= 1.00D-01 BMatC= 6.26D-05 BMatP= 6.31D-04
 IDIUse=3 WtCom= 9.96D-01 WtEn= 3.75D-03
 Coeff-Com:  0.127D-02-0.445D-02 0.414D-01 0.125D+00 0.312D+00 0.524D+00
 Coeff-En:   0.000D+00 0.000D+00 0.000D+00 0.000D+00 0.170D-01 0.983D+00
 Coeff:      0.127D-02-0.443D-02 0.412D-01 0.125D+00 0.311D+00 0.526D+00
 Gap=     0.198 Goal=   None    Shift=    0.000
 RMSDP=4.28D-05 MaxDP=1.58D-03 DE=-4.63D-04 OVMax= 1.55D-03

 Cycle   7  Pass 0  IDiag  1:
 E= -648.654728571354     Delta-E=       -0.000045151420 Rises=F Damp=F
 DIIS: error= 1.53D-04 at cycle   7 NSaved=   7.
 NSaved= 7 IEnMin= 7 EnMin= -648.654728571354     IErMin= 7 ErrMin= 1.53D-04
 ErrMax= 1.53D-04  0.00D+00 EMaxC= 1.00D-01 BMatC= 7.24D-06 BMatP= 6.26D-05
 IDIUse=3 WtCom= 9.98D-01 WtEn= 1.53D-03
 Coeff-Com:  0.398D-03-0.288D-02 0.143D-01 0.448D-01 0.139D+00 0.319D+00
 Coeff-Com:  0.485D+00
 Coeff-En:   0.000D+00 0.000D+00 0.000D+00 0.000D+00 0.000D+00 0.342D-01
 Coeff-En:   0.966D+00
 Coeff:      0.397D-03-0.287D-02 0.143D-01 0.447D-01 0.139D+00 0.319D+00
 Coeff:      0.486D+00
 Gap=     0.198 Goal=   None    Shift=    0.000
 RMSDP=1.40D-05 MaxDP=4.58D-04 DE=-4.52D-05 OVMax= 7.28D-04

 Cycle   8  Pass 0  IDiag  1:
 E= -648.654734132127     Delta-E=       -0.000005560773 Rises=F Damp=F
 DIIS: error= 3.31D-05 at cycle   8 NSaved=   8.
 NSaved= 8 IEnMin= 8 EnMin= -648.654734132127     IErMin= 8 ErrMin= 3.31D-05
 ErrMax= 3.31D-05  0.00D+00 EMaxC= 1.00D-01 BMatC= 6.81D-07 BMatP= 7.24D-06
 IDIUse=1 WtCom= 1.00D+00 WtEn= 0.00D+00
 Coeff-Com:  0.132D-03-0.124D-02 0.345D-02 0.107D-01 0.451D-01 0.123D+00
 Coeff-Com:  0.278D+00 0.541D+00
 Coeff:      0.132D-03-0.124D-02 0.345D-02 0.107D-01 0.451D-01 0.123D+00
 Coeff:      0.278D+00 0.541D+00
 Gap=     0.198 Goal=   None    Shift=    0.000
 RMSDP=4.04D-06 MaxDP=1.37D-04 DE=-5.56D-06 OVMax= 2.13D-04

 Initial convergence to 1.0D-05 achieved.  Increase integral accuracy.
 Cycle   9  Pass 1  IDiag  1:
 E= -648.654743942036     Delta-E=       -0.000009809909 Rises=F Damp=F
 DIIS: error= 1.32D-05 at cycle   1 NSaved=   1.
 NSaved= 1 IEnMin= 1 EnMin= -648.654743942036     IErMin= 1 ErrMin= 1.32D-05
 ErrMax= 1.32D-05  0.00D+00 EMaxC= 1.00D-01 BMatC= 5.86D-08 BMatP= 5.86D-08
 IDIUse=1 WtCom= 1.00D+00 WtEn= 0.00D+00
 Coeff-Com:  0.100D+01
 Coeff:      0.100D+01
 Gap=     0.198 Goal=   None    Shift=    0.000
 RMSDP=4.04D-06 MaxDP=1.37D-04 DE=-9.81D-06 OVMax= 1.57D-04

 Cycle  10  Pass 1  IDiag  1:
 E= -648.654743850254     Delta-E=        0.000000091782 Rises=F Damp=F
 DIIS: error= 3.10D-05 at cycle   2 NSaved=   2.
 NSaved= 2 IEnMin= 1 EnMin= -648.654743942036     IErMin= 1 ErrMin= 1.32D-05
 ErrMax= 3.10D-05  0.00D+00 EMaxC= 1.00D-01 BMatC= 1.74D-07 BMatP= 5.86D-08
 IDIUse=1 WtCom= 1.00D+00 WtEn= 0.00D+00
 Coeff-Com:  0.641D+00 0.359D+00
 Coeff:      0.641D+00 0.359D+00
 Gap=     0.198 Goal=   None    Shift=    0.000
 RMSDP=2.08D-06 MaxDP=7.80D-05 DE= 9.18D-08 OVMax= 1.15D-04

 Cycle  11  Pass 1  IDiag  1:
 E= -648.654743994152     Delta-E=       -0.000000143898 Rises=F Damp=F
 DIIS: error= 4.24D-06 at cycle   3 NSaved=   3.
 NSaved= 3 IEnMin= 3 EnMin= -648.654743994152     IErMin= 3 ErrMin= 4.24D-06
 ErrMax= 4.24D-06  0.00D+00 EMaxC= 1.00D-01 BMatC= 4.92D-09 BMatP= 5.86D-08
 IDIUse=1 WtCom= 1.00D+00 WtEn= 0.00D+00
 Coeff-Com:  0.237D+00 0.185D+00 0.578D+00
 Coeff:      0.237D+00 0.185D+00 0.578D+00
 Gap=     0.198 Goal=   None    Shift=    0.000
 RMSDP=4.36D-07 MaxDP=1.66D-05 DE=-1.44D-07 OVMax= 1.87D-05

 Cycle  12  Pass 1  IDiag  1:
 E= -648.654743997464     Delta-E=       -0.000000003312 Rises=F Damp=F
 DIIS: error= 1.21D-06 at cycle   4 NSaved=   4.
 NSaved= 4 IEnMin= 4 EnMin= -648.654743997464     IErMin= 4 ErrMin= 1.21D-06
 ErrMax= 1.21D-06  0.00D+00 EMaxC= 1.00D-01 BMatC= 9.01D-10 BMatP= 4.92D-09
 IDIUse=1 WtCom= 1.00D+00 WtEn= 0.00D+00
 Coeff-Com:  0.233D-01 0.459D-01 0.334D+00 0.596D+00
 Coeff:      0.233D-01 0.459D-01 0.334D+00 0.596D+00
 Gap=     0.198 Goal=   None    Shift=    0.000
 RMSDP=1.53D-07 MaxDP=5.39D-06 DE=-3.31D-09 OVMax= 6.16D-06

 Cycle  13  Pass 1  IDiag  1:
 E= -648.654743998119     Delta-E=       -0.000000000655 Rises=F Damp=F
 DIIS: error= 6.68D-07 at cycle   5 NSaved=   5.
 NSaved= 5 IEnMin= 5 EnMin= -648.654743998119     IErMin= 5 ErrMin= 6.68D-07
 ErrMax= 6.68D-07  0.00D+00 EMaxC= 1.00D-01 BMatC= 1.17D-10 BMatP= 9.01D-10
 IDIUse=1 WtCom= 1.00D+00 WtEn= 0.00D+00
 Coeff-Com: -0.664D-02 0.118D-01 0.148D+00 0.357D+00 0.490D+00
 Coeff:     -0.664D-02 0.118D-01 0.148D+00 0.357D+00 0.490D+00
 Gap=     0.198 Goal=   None    Shift=    0.000
 RMSDP=5.67D-08 MaxDP=1.80D-06 DE=-6.55D-10 OVMax= 2.31D-06

 Cycle  14  Pass 1  IDiag  1:
 E= -648.654743998209     Delta-E=       -0.000000000090 Rises=F Damp=F
 DIIS: error= 2.77D-07 at cycle   6 NSaved=   6.
 NSaved= 6 IEnMin= 6 EnMin= -648.654743998209     IErMin= 6 ErrMin= 2.77D-07
 ErrMax= 2.77D-07  0.00D+00 EMaxC= 1.00D-01 BMatC= 1.30D-11 BMatP= 1.17D-10
 IDIUse=1 WtCom= 1.00D+00 WtEn= 0.00D+00
 Coeff-Com: -0.604D-02 0.384D-02 0.629D-01 0.169D+00 0.308D+00 0.462D+00
 Coeff:     -0.604D-02 0.384D-02 0.629D-01 0.169D+00 0.308D+00 0.462D+00
 Gap=     0.198 Goal=   None    Shift=    0.000
 RMSDP=1.82D-08 MaxDP=7.73D-07 DE=-8.96D-11 OVMax= 1.32D-06

 Cycle  15  Pass 1  IDiag  1:
 E= -648.654743998196     Delta-E=        0.000000000013 Rises=F Damp=F
 DIIS: error= 5.13D-08 at cycle   7 NSaved=   7.
 NSaved= 7 IEnMin= 6 EnMin= -648.654743998209     IErMin= 7 ErrMin= 5.13D-08
 ErrMax= 5.13D-08  0.00D+00 EMaxC= 1.00D-01 BMatC= 1.11D-12 BMatP= 1.30D-11
 IDIUse=1 WtCom= 1.00D+00 WtEn= 0.00D+00
 Coeff-Com: -0.272D-02 0.863D-03 0.174D-01 0.528D-01 0.121D+00 0.276D+00
 Coeff-Com:  0.535D+00
 Coeff:     -0.272D-02 0.863D-03 0.174D-01 0.528D-01 0.121D+00 0.276D+00
 Coeff:      0.535D+00
 Gap=     0.198 Goal=   None    Shift=    0.000
 RMSDP=4.95D-09 MaxDP=1.75D-07 DE= 1.30D-11 OVMax= 2.35D-07

 SCF Done:  E(RB3LYP) =  -648.654743998     A.U. after   15 cycles
            NFock= 15  Conv=0.49D-08     -V/T= 2.0083
 KE= 6.433315190448D+02 PE=-3.070732642153D+03 EE= 1.000538179834D+03
 Leave Link  502 at Mon Aug  7 13:12:20 2023, MaxMem=   458752000 cpu:       114.6
 (Enter /opt/apps/apps/binapps/gaussian/g09d01_em64t/g09/l601.exe)
 Copying SCF densities to generalized density rwf, IOpCl= 0 IROHF=0.

 **********************************************************************

            Population analysis using the SCF density.

 **********************************************************************

 Orbital symmetries:
       Occupied  (A) (A) (A) (A) (A) (A) (A) (A) (A) (A) (A) (A)
                 (A) (A) (A) (A) (A) (A) (A) (A) (A) (A) (A) (A)
                 (A) (A) (A) (A) (A) (A) (A) (A) (A) (A) (A) (A)
                 (A) (A) (A) (A) (A) (A) (A) (A) (A) (A) (A)
       Virtual   (A) (A) (A) (A) (A) (A) (A) (A) (A) (A) (A) (A)
                 (A) (A) (A) (A) (A) (A) (A) (A) (A) (A) (A) (A)
                 (A) (A) (A) (A) (A) (A) (A) (A) (A) (A) (A) (A)
                 (A) (A) (A) (A) (A) (A) (A) (A) (A) (A) (A) (A)
                 (A) (A) (A) (A) (A) (A) (A) (A) (A) (A) (A) (A)
                 (A) (A) (A) (A) (A) (A) (A) (A) (A) (A) (A) (A)
                 (A) (A) (A) (A) (A) (A) (A) (A) (A) (A) (A) (A)
                 (A) (A) (A) (A) (A) (A) (A) (A) (A) (A) (A) (A)
                 (A) (A) (A) (A) (A) (A) (A) (A) (A) (A) (A) (A)
                 (A) (A) (A) (A) (A) (A) (A) (A) (A) (A) (A) (A)
                 (A) (A) (A) (A) (A) (A) (A) (A) (A) (A) (A) (A)
                 (A) (A) (A) (A) (A) (A) (A) (A) (A) (A) (A) (A)
                 (A) (A) (A) (A) (A) (A) (A) (A) (A) (A) (A) (A)
                 (A) (A) (A) (A) (A) (A) (A) (A)
 The electronic state is 1-A.
 Alpha  occ. eigenvalues --  -19.24933 -19.17916 -19.17296 -19.11313 -10.36099
 Alpha  occ. eigenvalues --  -10.30290 -10.28588 -10.23083 -10.22237 -10.22042
 Alpha  occ. eigenvalues --  -10.21907 -10.20669 -10.20158  -1.16619  -1.10903
 Alpha  occ. eigenvalues --   -1.06420  -1.01530  -0.88216  -0.81266  -0.78210
 Alpha  occ. eigenvalues --   -0.75600  -0.69211  -0.65823  -0.60377  -0.59680
 Alpha  occ. eigenvalues --   -0.55089  -0.52581  -0.52097  -0.51691  -0.49478
 Alpha  occ. eigenvalues --   -0.47073  -0.45525  -0.44921  -0.43938  -0.43463
 Alpha  occ. eigenvalues --   -0.42847  -0.41424  -0.41021  -0.38767  -0.37454
 Alpha  occ. eigenvalues --   -0.36087  -0.35818  -0.30760  -0.30297  -0.26881
 Alpha  occ. eigenvalues --   -0.26040  -0.25896
 Alpha virt. eigenvalues --   -0.06081  -0.04085  -0.00486   0.06087   0.07546
 Alpha virt. eigenvalues --    0.08509   0.11781   0.12229   0.13726   0.14787
 Alpha virt. eigenvalues --    0.14925   0.17567   0.17848   0.19946   0.22455
 Alpha virt. eigenvalues --    0.24260   0.26253   0.27759   0.30395   0.30791
 Alpha virt. eigenvalues --    0.31761   0.33849   0.40242   0.41934   0.45597
 Alpha virt. eigenvalues --    0.47344   0.47562   0.50642   0.51553   0.52809
 Alpha virt. eigenvalues --    0.53961   0.54458   0.55832   0.57132   0.57618
 Alpha virt. eigenvalues --    0.58227   0.59488   0.60199   0.61236   0.61368
 Alpha virt. eigenvalues --    0.63108   0.64220   0.65323   0.68805   0.70293
 Alpha virt. eigenvalues --    0.71761   0.72776   0.75050   0.76587   0.79737
 Alpha virt. eigenvalues --    0.81783   0.82512   0.83345   0.83943   0.87069
 Alpha virt. eigenvalues --    0.87259   0.88684   0.89618   0.92129   0.93417
 Alpha virt. eigenvalues --    0.94679   0.95847   0.97626   0.98279   1.00344
 Alpha virt. eigenvalues --    1.02134   1.04292   1.04884   1.07025   1.09766
 Alpha virt. eigenvalues --    1.10763   1.11935   1.16200   1.18052   1.21300
 Alpha virt. eigenvalues --    1.23543   1.26432   1.27069   1.28982   1.31615
 Alpha virt. eigenvalues --    1.33118   1.37170   1.38728   1.39567   1.44094
 Alpha virt. eigenvalues --    1.45849   1.46886   1.50733   1.52166   1.55320
 Alpha virt. eigenvalues --    1.60874   1.63742   1.65239   1.66619   1.68373
 Alpha virt. eigenvalues --    1.70862   1.73650   1.75060   1.76757   1.78947
 Alpha virt. eigenvalues --    1.80824   1.81715   1.84965   1.85964   1.87258
 Alpha virt. eigenvalues --    1.89276   1.91964   1.92425   1.95267   1.96823
 Alpha virt. eigenvalues --    1.97660   1.99589   2.01794   2.05337   2.07784
 Alpha virt. eigenvalues --    2.10814   2.13320   2.15140   2.15961   2.16804
 Alpha virt. eigenvalues --    2.20269   2.23300   2.24195   2.27625   2.31149
 Alpha virt. eigenvalues --    2.32931   2.35681   2.43852   2.45195   2.47529
 Alpha virt. eigenvalues --    2.51725   2.53729   2.55580   2.59282   2.63186
 Alpha virt. eigenvalues --    2.65425   2.67678   2.69038   2.72664   2.74975
 Alpha virt. eigenvalues --    2.77974   2.78952   2.80277   2.89229   2.93480
 Alpha virt. eigenvalues --    2.96179   3.02098   3.10728   3.18427   3.38019
 Alpha virt. eigenvalues --    3.39815   3.93994   4.00335   4.06429   4.07226
 Alpha virt. eigenvalues --    4.10316   4.14530   4.27422   4.31494   4.39997
 Alpha virt. eigenvalues --    4.43468   4.44724   4.57211   4.74837
          Condensed to atoms (all electrons):
               1          2          3          4          5          6
     1  C    4.998394  -0.044072   0.503944  -0.020532   0.000003   0.469500
     2  C   -0.044072   4.988912  -0.022956   0.507577   0.000489  -0.035581
     3  C    0.503944  -0.022956   4.927625   0.488335   0.000000  -0.026198
     4  C   -0.020532   0.507577   0.488335   4.922553   0.000006  -0.040734
     5  C    0.000003   0.000489   0.000000   0.000006   5.230169  -0.000519
     6  C    0.469500  -0.035581  -0.026198  -0.040734  -0.000519   5.238847
     7  C   -0.053724   0.490411  -0.036057  -0.016485   0.003230   0.452330
     8  O    0.002454  -0.000115   0.001301  -0.000017   0.000000  -0.104374
     9  O    0.000002  -0.005925  -0.000010   0.000701  -0.065230   0.000153
    10  O    0.003968   0.000042   0.000022  -0.000013  -0.000024  -0.103251
    11  C   -0.024734   0.005824   0.005682   0.000119  -0.000009   0.243923
    12  C    0.000004  -0.002579  -0.000003   0.000469   0.371354   0.002282
    13  O    0.003237  -0.057505  -0.000073   0.003469  -0.094621  -0.063479
    14  H   -0.000298   0.000958  -0.000097   0.000004  -0.000585   0.001692
    15  H    0.356370   0.000016  -0.038603   0.003880   0.000000  -0.036602
    16  H    0.000695   0.360023   0.006059  -0.047722   0.000263   0.005912
    17  H   -0.045616   0.005498   0.363037  -0.044781   0.000000   0.005682
    18  H    0.003847  -0.038316  -0.040472   0.365209   0.000000   0.000296
    19  H    0.000000   0.000001   0.000000   0.000000   0.360854   0.000003
    20  H    0.000000   0.000008   0.000000   0.000000   0.362302   0.000039
    21  H    0.000000  -0.000047   0.000000   0.000000   0.350299   0.000105
               7          8          9         10         11         12
     1  C   -0.053724   0.002454   0.000002   0.003968  -0.024734   0.000004
     2  C    0.490411  -0.000115  -0.005925   0.000042   0.005824  -0.002579
     3  C   -0.036057   0.001301  -0.000010   0.000022   0.005682  -0.000003
     4  C   -0.016485  -0.000017   0.000701  -0.000013   0.000119   0.000469
     5  C    0.003230   0.000000  -0.065230  -0.000024  -0.000009   0.371354
     6  C    0.452330  -0.104374   0.000153  -0.103251   0.243923   0.002282
     7  C    4.737715   0.003557  -0.001831   0.000651  -0.036488  -0.018739
     8  O    0.003557   8.011270   0.000000  -0.100391   0.615526   0.000001
     9  O   -0.001831   0.000000   7.990803  -0.000005  -0.000003   0.562074
    10  O    0.000651  -0.100391  -0.000005   8.284061   0.307420  -0.000255
    11  C   -0.036488   0.615526  -0.000003   0.307420   4.402090  -0.000032
    12  C   -0.018739   0.000001   0.562074  -0.000255  -0.000032   4.353167
    13  O    0.200634  -0.000028  -0.073852  -0.021962  -0.004095   0.217938
    14  H   -0.006243   0.005485   0.000249   0.206810  -0.025077   0.000345
    15  H    0.004187   0.013486   0.000000   0.000252  -0.006326   0.000001
    16  H   -0.034315   0.000001   0.015646   0.000008  -0.000113   0.002104
    17  H    0.001036  -0.000003   0.000000   0.000001  -0.000169   0.000000
    18  H    0.003858   0.000000   0.000000   0.000000   0.000007  -0.000011
    19  H   -0.000038   0.000000   0.001082   0.000002   0.000001  -0.022782
    20  H   -0.000159   0.000000  -0.001883  -0.000008  -0.000001  -0.027475
    21  H   -0.000063   0.000000   0.002615   0.000656  -0.000057  -0.022283
              13         14         15         16         17         18
     1  C    0.003237  -0.000298   0.356370   0.000695  -0.045616   0.003847
     2  C   -0.057505   0.000958   0.000016   0.360023   0.005498  -0.038316
     3  C   -0.000073  -0.000097  -0.038603   0.006059   0.363037  -0.040472
     4  C    0.003469   0.000004   0.003880  -0.047722  -0.044781   0.365209
     5  C   -0.094621  -0.000585   0.000000   0.000263   0.000000   0.000000
     6  C   -0.063479   0.001692  -0.036602   0.005912   0.005682   0.000296
     7  C    0.200634  -0.006243   0.004187  -0.034315   0.001036   0.003858
     8  O   -0.000028   0.005485   0.013486   0.000001  -0.000003   0.000000
     9  O   -0.073852   0.000249   0.000000   0.015646   0.000000   0.000000
    10  O   -0.021962   0.206810   0.000252   0.000008   0.000001   0.000000
    11  C   -0.004095  -0.025077  -0.006326  -0.000113  -0.000169   0.000007
    12  C    0.217938   0.000345   0.000001   0.002104   0.000000  -0.000011
    13  O    8.386966   0.041291  -0.000027  -0.007920   0.000002  -0.000051
    14  H    0.041291   0.344873  -0.000074  -0.000055   0.000000   0.000001
    15  H   -0.000027  -0.000074   0.526986   0.000008  -0.005956  -0.000117
    16  H   -0.007920  -0.000055   0.000008   0.537051  -0.000218  -0.006886
    17  H    0.000002   0.000000  -0.005956  -0.000218   0.582867  -0.004211
    18  H   -0.000051   0.000001  -0.000117  -0.006886  -0.004211   0.562692
    19  H    0.003047   0.000003   0.000000   0.000004   0.000000   0.000000
    20  H   -0.000056   0.000057   0.000000   0.000005   0.000000   0.000000
    21  H    0.003045   0.001506   0.000000  -0.000024   0.000000   0.000000
              19         20         21
     1  C    0.000000   0.000000   0.000000
     2  C    0.000001   0.000008  -0.000047
     3  C    0.000000   0.000000   0.000000
     4  C    0.000000   0.000000   0.000000
     5  C    0.360854   0.362302   0.350299
     6  C    0.000003   0.000039   0.000105
     7  C   -0.000038  -0.000159  -0.000063
     8  O    0.000000   0.000000   0.000000
     9  O    0.001082  -0.001883   0.002615
    10  O    0.000002  -0.000008   0.000656
    11  C    0.000001  -0.000001  -0.000057
    12  C   -0.022782  -0.027475  -0.022283
    13  O    0.003047  -0.000056   0.003045
    14  H    0.000003   0.000057   0.001506
    15  H    0.000000   0.000000   0.000000
    16  H    0.000004   0.000005  -0.000024
    17  H    0.000000   0.000000   0.000000
    18  H    0.000000   0.000000   0.000000
    19  H    0.505464  -0.019620  -0.022957
    20  H   -0.019620   0.500599  -0.017720
    21  H   -0.022957  -0.017720   0.515004
 Mulliken charges:
               1
     1  C   -0.153443
     2  C   -0.152663
     3  C   -0.131536
     4  C   -0.122038
     5  C   -0.517981
     6  C   -0.010025
     7  C    0.306532
     8  O   -0.448153
     9  O   -0.424586
    10  O   -0.577983
    11  C    0.516512
    12  C    0.584421
    13  O   -0.535962
    14  H    0.429156
    15  H    0.182520
    16  H    0.169474
    17  H    0.142830
    18  H    0.154155
    19  H    0.194937
    20  H    0.203911
    21  H    0.189922
 Sum of Mulliken charges =   0.00000
 Mulliken charges with hydrogens summed into heavy atoms:
               1
     1  C    0.029077
     2  C    0.016811
     3  C    0.011295
     4  C    0.032117
     5  C    0.070788
     6  C   -0.010025
     7  C    0.306532
     8  O   -0.448153
     9  O   -0.424586
    10  O   -0.148827
    11  C    0.516512
    12  C    0.584421
    13  O   -0.535962
 Electronic spatial extent (au):  <R**2>=           2401.9722
 Charge=              0.0000 electrons
 Dipole moment (field-independent basis, Debye):
    X=              2.6618    Y=              2.8604    Z=             -1.0468  Tot=              4.0451
 Quadrupole moment (field-independent basis, Debye-Ang):
   XX=            -68.8837   YY=            -81.7546   ZZ=            -73.2940
   XY=            -16.8538   XZ=              0.3924   YZ=             -1.7949
 Traceless Quadrupole moment (field-independent basis, Debye-Ang):
   XX=              5.7604   YY=             -7.1105   ZZ=              1.3501
   XY=            -16.8538   XZ=              0.3924   YZ=             -1.7949
 Octapole moment (field-independent basis, Debye-Ang**2):
  XXX=             25.3804  YYY=             37.8818  ZZZ=              0.6652  XYY=             11.9013
  XXY=             -4.3777  XXZ=             -7.7459  XZZ=              9.9834  YZZ=             -8.5087
  YYZ=             -5.7985  XYZ=             -3.2445
 Hexadecapole moment (field-independent basis, Debye-Ang**3):
 XXXX=          -1680.9745 YYYY=          -1169.6363 ZZZZ=            -93.9957 XXXY=           -106.2967
 XXXZ=              0.8457 YYYX=            -55.6126 YYYZ=            -15.1926 ZZZX=              4.9135
 ZZZY=              1.4842 XXYY=           -541.9505 XXZZ=           -315.8188 YYZZ=           -212.9738
 XXYZ=             -3.3269 YYXZ=              7.4630 ZZXY=             10.9893
 N-N= 7.782081992760D+02 E-N=-3.070732643566D+03  KE= 6.433315190448D+02
 No NMR shielding tensors so no spin-rotation constants.
 Leave Link  601 at Mon Aug  7 13:12:20 2023, MaxMem=   458752000 cpu:         0.2
 (Enter /opt/apps/apps/binapps/gaussian/g09d01_em64t/g09/l602.exe)
 FitSet:  NAtFit=    21 NAtPot=    21 NAtFrz=     0 MDM=    25 TotChg=   0.00000
 Merz-Kollman atomic radii used.

 **********************************************************************

            Electrostatic Properties Using The SCF Density

 **********************************************************************

       Atomic Center    1 is at  -2.405773  0.466202  0.240803
       Atomic Center    2 is at  -0.003481  1.818636 -0.098337
       Atomic Center    3 is at  -2.399936  1.782944 -0.143726
       Atomic Center    4 is at  -1.195921  2.551265 -0.122431
       Atomic Center    5 is at   3.408393 -0.962720  0.033650
       Atomic Center    6 is at  -1.155243 -0.275178  0.163274
       Atomic Center    7 is at   0.026489  0.409418  0.007694
       Atomic Center    8 is at  -2.260686 -2.290853  0.332107
       Atomic Center    9 is at   2.729795  1.371381  0.278171
       Atomic Center   10 is at  -0.278960 -2.414805 -0.481068
       Atomic Center   11 is at  -1.282867 -1.703721  0.023873
       Atomic Center   12 is at   2.463629  0.226880 -0.008184
       Atomic Center   13 is at   1.193546 -0.245524 -0.084221
       Atomic Center   14 is at   0.367500 -1.691947 -0.566953
       Atomic Center   15 is at  -3.395253 -0.104504  0.313825
       Atomic Center   16 is at   0.810311  2.347158 -0.298090
       Atomic Center   17 is at  -3.325299  2.239772 -0.336895
       Atomic Center   18 is at  -1.151879  3.609436 -0.341202
       Atomic Center   19 is at   4.420654 -0.678639 -0.315693
       Atomic Center   20 is at   3.457006 -1.169560  1.148750
       Atomic Center   21 is at   3.015664 -1.795655 -0.543361
    1001 points will be used for fitting atomic charges
 Fitting point charges to electrostatic potential
 Charges from ESP fit, RMS=   0.00111 RRMS=   0.05793:
 ESP charges:
               1
     1  C    0.004862
     2  C   -0.262433
     3  C   -0.212221
     4  C   -0.045559
     5  C   -0.664994
     6  C   -0.308916
     7  C    0.355964
     8  O   -0.499214
     9  O   -0.455819
    10  O   -0.507311
    11  C    0.715206
    12  C    0.705047
    13  O   -0.287885
    14  H    0.286784
    15  H    0.119030
    16  H    0.161597
    17  H    0.147042
    18  H    0.134945
    19  H    0.190666
    20  H    0.210715
    21  H    0.212494
 Sum of ESP charges =   0.00000
 ESP charges with hydrogens summed into heavy atoms:
               1
     1  C    0.123892
     2  C   -0.100836
     3  C   -0.065179
     4  C    0.089386
     5  C   -0.051120
     6  C   -0.308916
     7  C    0.355964
     8  O   -0.499214
     9  O   -0.455819
    10  O   -0.220527
    11  C    0.715206
    12  C    0.705047
    13  O   -0.287885
 Charge=   0.00000 Dipole=     2.6625     2.8708    -1.0691 Tot=     4.0588
 -----------------------------------------------------------------

              Electrostatic Properties (Atomic Units)

 -----------------------------------------------------------------
    Center     Electric         -------- Electric Field --------
               Potential          X             Y             Z
 -----------------------------------------------------------------
    1 Atom    -14.706977
    2 Atom    -14.729326
    3 Atom    -14.722697
    4 Atom    -14.708645
    5 Atom    -14.692906
    6 Atom    -14.706394
    7 Atom    -14.640869
    8 Atom    -22.354011
    9 Atom    -22.295139
   10 Atom    -22.285295
   11 Atom    -14.627039
   12 Atom    -14.565910
   13 Atom    -22.210086
   14 Atom     -0.961334
   15 Atom     -1.083920
   16 Atom     -1.099065
   17 Atom     -1.097561
   18 Atom     -1.080696
   19 Atom     -1.071057
   20 Atom     -1.056113
   21 Atom     -1.070687
 -----------------------------------------------------------------
 Leave Link  602 at Mon Aug  7 13:12:21 2023, MaxMem=   458752000 cpu:         0.2
 (Enter /opt/apps/apps/binapps/gaussian/g09d01_em64t/g09/l701.exe)
 Compute integral first derivatives.
 ... and contract with generalized density number  0.
 R6Disp: Adding Grimme-D3 dispersion energy 1st derivatives to the gradient.
 Leave Link  701 at Mon Aug  7 13:12:21 2023, MaxMem=   458752000 cpu:         0.2
 (Enter /opt/apps/apps/binapps/gaussian/g09d01_em64t/g09/l702.exe)
 L702 exits ... SP integral derivatives will be done elsewhere.
 Leave Link  702 at Mon Aug  7 13:12:21 2023, MaxMem=   458752000 cpu:         0.0
 (Enter /opt/apps/apps/binapps/gaussian/g09d01_em64t/g09/l703.exe)
 Compute integral first derivatives, UseDBF=F ICtDFT=           0.
 Integral derivatives from FoFJK, PRISM(SPDF).
 Calling FoFJK, ICntrl=      2127 FMM=F ISym2X=0 I1Cent= 0 IOpClX= 0 NMat=1 NMatS=1 NMatT=0.
 FoFJK:  IHMeth= 1 ICntrl=    2127 DoSepK=F KAlg= 0 I1Cent=   0 FoldK=F
 IRaf=         0 NMat=   1 IRICut=       1 DoRegI=T DoRafI=F ISym2E= 0.
 FoFCou: FMM=F IPFlag=           0 FMFlag=      100000 FMFlg1=         800
         NFxFlg=           0 DoJE=F BraDBF=F KetDBF=F FulRan=T
         wScrn=  0.000000 ICntrl=    2127 IOpCl=  0 I1Cent=           0 NGrid=           0
         NMat0=    1 NMatS0=      1 NMatT0=    0 NMatD0=    1 NMtDS0=    0 NMtDT0=    0
 Symmetry not used in FoFCou.
 Leave Link  703 at Mon Aug  7 13:12:51 2023, MaxMem=   458752000 cpu:        29.6
 (Enter /opt/apps/apps/binapps/gaussian/g09d01_em64t/g09/l716.exe)
 Dipole        = 1.04724901D+00 1.12536728D+00-4.11840418D-01
 ***** Axes restored to original set *****
 -------------------------------------------------------------------
 Center     Atomic                   Forces (Hartrees/Bohr)
 Number     Number              X              Y              Z
 -------------------------------------------------------------------
      1        6           0.006684032    0.004073290    0.042351494
      2        6           0.073813122   -0.006862388   -0.004967881
      3        6          -0.024195100   -0.018743454   -0.026948408
      4        6           0.016692768   -0.004093932    0.044808605
      5        6          -0.010791341   -0.005468922   -0.018223999
      6        6           0.022790194    0.012706902   -0.032037975
      7        6          -0.003472074    0.032900983   -0.061335683
      8        8           0.068551845   -0.016326900   -0.003157458
      9        8          -0.002529724    0.005856533    0.013955364
     10        8          -0.031541091    0.010777975   -0.004870908
     11        6           0.004377120   -0.019694932    0.018656643
     12        6          -0.017683406   -0.019590151   -0.019298521
     13        8           0.002355646   -0.007595053    0.040572712
     14        1          -0.018179426   -0.003713609    0.028283276
     15        1          -0.036811238    0.001466003   -0.002339956
     16        1          -0.081890004    0.010826541   -0.010167083
     17        1           0.018466595    0.013100431   -0.018996093
     18        1           0.002999882    0.000855844   -0.003346687
     19        1           0.010416582   -0.002172778   -0.002907826
     20        1          -0.001133324    0.017692464    0.017127189
     21        1           0.001078942   -0.005994848    0.002843197
 -------------------------------------------------------------------
 Cartesian Forces:  Max     0.081890004 RMS     0.024996977
 Z-matrix is all fixed cartesians, so copy forces.
 Leave Link  716 at Mon Aug  7 13:12:51 2023, MaxMem=   458752000 cpu:         0.0
 (Enter /opt/apps/apps/binapps/gaussian/g09d01_em64t/g09/l103.exe)

 GradGradGradGradGradGradGradGradGradGradGradGradGradGradGradGradGradGrad
 Berny optimization.
 Search for a local minimum.
 Step number   1 out of a maximum of    2
 All quantities printed in internal units (Hartrees-Bohrs-Radians)
 Second derivative matrix not updated -- first step.
 ITU=  0
     Eigenvalues ---    0.00090   0.00156   0.00195   0.00302   0.00464
     Eigenvalues ---    0.00763   0.00979   0.01426   0.01926   0.02337
     Eigenvalues ---    0.02817   0.03229   0.03789   0.04198   0.05359
     Eigenvalues ---    0.05738   0.06351   0.06722   0.07255   0.08287
     Eigenvalues ---    0.09004   0.09291   0.10305   0.12187   0.12947
     Eigenvalues ---    0.13311   0.13885   0.15234   0.16512   0.18924
     Eigenvalues ---    0.21069   0.23062   0.24432   0.29788   0.31689
     Eigenvalues ---    0.32234   0.38211   0.44111   0.47678   0.49769
     Eigenvalues ---    0.63498   0.70039   0.77000   0.82935   0.93102
     Eigenvalues ---    0.96941   1.09156   1.10032   1.19448   1.25475
     Eigenvalues ---    1.42319   1.45506   1.49737   1.66909   1.77292
     Eigenvalues ---    2.32952   2.61173
 Quadratic step=1.868D+00 exceeds max=3.000D-01 adjusted using Lamda=-2.107D-01.
 Angle between NR and scaled steps=  54.35 degrees.
 Angle between quadratic step and forces=  36.01 degrees.
 Linear search not attempted -- first point.
 TrRot= -0.001842  0.034972 -0.027454  1.665236 -0.001239 -1.665520
 Variable       Old X    -DE/DX   Delta X   Delta X   Delta X     New X
                                 (Linear)    (Quad)   (Total)
    X1       27.02539   0.00668   0.00000  -0.00531   0.00217  27.02755
    Y1       24.05288   0.00407   0.00000   0.03841   0.03954  24.09242
    Z1       21.14283   0.04235   0.00000   0.05163   0.05071  21.19354
    X2       21.91511   0.07381   0.00000   0.01221   0.01984  21.93494
    Y2       24.96583  -0.00686   0.00000   0.01699   0.02062  24.98645
    Z2       20.36652  -0.00497   0.00000  -0.02679  -0.02601  20.34051
    X3       26.26021  -0.02420   0.00000   0.00110   0.00886  26.26907
    Y3       25.86303  -0.01874   0.00000  -0.03478  -0.03122  25.83182
    Z3       19.45241  -0.02695   0.00000  -0.05070  -0.04938  19.40302
    X4       23.66761   0.01669   0.00000   0.02090   0.02867  23.69628
    Y4       26.09221  -0.00409   0.00000   0.01657   0.02163  26.11384
    Z4       18.73661   0.04481   0.00000   0.04649   0.04846  18.78507
    X5       17.28050  -0.01079   0.00000  -0.01726  -0.01009  17.27040
    Y5       21.02221  -0.00547   0.00000  -0.00243  -0.00449  21.01772
    Z5       26.04334  -0.01822   0.00000  -0.01429  -0.01785  26.02549
    X6       25.16314   0.02279   0.00000   0.02374   0.03113  25.19426
    Y6       23.06261   0.01271   0.00000   0.01478   0.01435  23.07696
    Z6       22.90924  -0.03204   0.00000  -0.02193  -0.02388  22.88536
    X7       22.63982  -0.00347   0.00000  -0.00113   0.00633  22.64615
    Y7       23.51090   0.03290   0.00000   0.03134   0.03220  23.54310
    Z7       22.48621  -0.06134   0.00000  -0.05894  -0.06002  22.42619
    X8       28.27611   0.06855   0.00000   0.10077   0.10796  28.38407
    Y8       21.36381  -0.01633   0.00000  -0.02023  -0.02471  21.33910
    Z8       25.43870  -0.00316   0.00000   0.00299  -0.00148  25.43722
    X9       17.25611  -0.00253   0.00000  -0.03307  -0.02582  17.23029
    Y9       22.97549   0.00586   0.00000   0.02070   0.02377  22.99927
    Z9       21.86036   0.01396   0.00000   0.02135   0.02023  21.88059
   X10       24.68659  -0.03154   0.00000  -0.04738  -0.03983  24.64677
   Y10       21.86251   0.01078   0.00000   0.01769   0.01203  21.87454
   Z10       27.25731  -0.00487   0.00000  -0.00472  -0.00809  27.24922
   X11       26.16002   0.00438   0.00000   0.04689   0.05424  26.21426
   Y11       22.04442  -0.01969   0.00000  -0.05195  -0.05558  21.98883
   Z11       25.22972   0.01866   0.00000   0.01820   0.01479  25.24451
   X12       18.33450  -0.01768   0.00000  -0.00950  -0.00219  18.33231
   Y12       22.50147  -0.01959   0.00000  -0.05660  -0.05621  22.44526
   Z12       23.81890  -0.01930   0.00000  -0.02134  -0.02327  23.79563
   X13       20.87987   0.00236   0.00000   0.00858   0.01599  20.89586
   Y13       22.65181  -0.00760   0.00000   0.00634   0.00561  22.65742
   Z13       24.09568   0.04057   0.00000   0.02657   0.02461  24.12028
   X14       23.11609  -0.01818   0.00000  -0.09034  -0.08271  23.03338
   Y14       22.42352  -0.00371   0.00000  -0.00269  -0.00705  22.41647
   Z14       26.48047   0.02828   0.00000   0.08966   0.08715  26.56762
   X15       29.13143  -0.03681   0.00000  -0.07888  -0.07145  29.05998
   Y15       23.77260   0.00147   0.00000   0.00434   0.00445  23.77704
   Z15       21.54841  -0.00234   0.00000   0.01615   0.01460  21.56302
   X16       20.13758  -0.08189   0.00000  -0.11978  -0.11204  20.02553
   Y16       25.47623   0.01083   0.00000  -0.00652  -0.00199  25.47424
   Z16       20.07521  -0.01017   0.00000  -0.02512  -0.02351  20.05170
   X17       27.66472   0.01847   0.00000   0.02575   0.03371  27.69843
   Y17       26.91913   0.01310   0.00000   0.00188   0.00619  26.92532
   Z17       18.53131  -0.01900   0.00000  -0.06612  -0.06363  18.46768
   X18       22.99009   0.00300   0.00000   0.01932   0.02727  23.01736
   Y18       27.38654   0.00086   0.00000  -0.00671   0.00035  27.38689
   Z18       17.30758  -0.00335   0.00000   0.00590   0.00952  17.31710
   X19       15.26366   0.01042   0.00000   0.00900   0.01634  15.28000
   Y19       21.48355  -0.00217   0.00000   0.00003  -0.00187  21.48169
   Z19       26.36381  -0.00291   0.00000  -0.01045  -0.01321  26.35060
   X20       17.41051  -0.00113   0.00000  -0.01317  -0.00665  17.40387
   Y20       19.01027   0.01769   0.00000   0.02414   0.02286  19.03314
   Z20       25.31063   0.01713   0.00000   0.05253   0.04650  25.35713
   X21       18.39020   0.00108   0.00000  -0.00915  -0.00169  18.38851
   Y21       21.34591  -0.00599   0.00000  -0.01600  -0.02048  21.32542
   Z21       27.74071   0.00284   0.00000  -0.00292  -0.00623  27.73448
         Item               Value     Threshold  Converged?
 Maximum Force            0.081890     0.000450     NO 
 RMS     Force            0.024997     0.000300     NO 
 Maximum Displacement     0.112044     0.001800     NO 
 RMS     Displacement     0.037546     0.001200     NO 
 Predicted change in Energy=-3.365276D-02
 GradGradGradGradGradGradGradGradGradGradGradGradGradGradGradGradGradGrad

 Leave Link  103 at Mon Aug  7 13:12:51 2023, MaxMem=   458752000 cpu:         0.0
 (Enter /opt/apps/apps/binapps/gaussian/g09d01_em64t/g09/l9999.exe)
 1\1\GINC-NODE690\Force\RB3LYP\6-31G(d)\C9H8O4\MBDX6CW3\07-Aug-2023\0\\
 #p b3lyp/6-31g* pop=mk empiricaldispersion=gd3 int(ultrafine) force\\a
 spirin\\0,1\C,14.30122018,12.72823453,11.18830442\C,11.59697533,13.211
 34925,10.77749729\C,13.89630675,13.68612766,10.29376984\C,12.52435923,
 13.80740166,9.91498888\C,9.14444566,11.12447381,13.78154278\C,13.31575
 871,12.20420837,12.12304592\C,11.98047638,12.44143486,11.89918995\O,14
 .96307254,11.30524039,13.46157908\O,9.13154066,12.15810776,11.56800508
 \O,13.06358337,11.56914115,14.42394853\C,13.84328842,11.66540265,13.35
 099459\C,9.70220029,11.90726638,12.6044178\O,11.04915142,11.98682308,1
 2.7508831\H,12.23250866,11.8660152,14.01286244\H,15.41569114,12.579916
 72,11.40293002\H,10.65634727,13.48144054,10.6233418\H,14.63953972,14.2
 4498916,9.80634511\H,12.16583252,14.49233055,9.1587764\H,8.07718039,11
 .36860609,13.95112753\H,9.2132467,10.05980253,13.3938098\H,9.73167598,
 11.29576683,14.6797502\\Version=ES64L-G09RevD.01\State=1-A\HF=-648.654
 744\RMSD=4.947e-09\RMSF=2.500e-02\Dipole=-1.34673,0.6930805,-0.4886229
 \Quadrupole=-3.4306028,3.1363606,0.2942422,6.3746639,-11.3347181,-1.60
 2091\PG=C01 [X(C9H8O4)]\\@


 K N O W I N G  IS A BARRIER WHICH PREVENTS LEARNING

                     -- TEACHING OF THE BENE GESSERIT
 Job cpu time:       0 days  0 hours  2 minutes 33.7 seconds.
 File lengths (MBytes):  RWF=     20 Int=      0 D2E=      0 Chk=      3 Scr=      1
 Normal termination of Gaussian 09 at Mon Aug  7 13:12:51 2023.
