 Entering Gaussian System, Link 0=/opt/apps/apps/binapps/gaussian/g09d01_em64t/g09/g09
 Initial command:
 /opt/apps/apps/binapps/gaussian/g09d01_em64t/g09/l1.exe "/net/scratch2/mbdx6cw3/aspirin/300K-meta/dft/qm_input/gau_temp_15/Gau-26162.inp" -scrdir="/net/scratch2/mbdx6cw3/aspirin/300K-meta/dft/qm_input/gau_temp_15/"
 Entering Link 1 = /opt/apps/apps/binapps/gaussian/g09d01_em64t/g09/l1.exe PID=     26164.
  
 Copyright (c) 1988,1990,1992,1993,1995,1998,2003,2009,2013,
            Gaussian, Inc.  All Rights Reserved.
  
 This is part of the Gaussian(R) 09 program.  It is based on
 the Gaussian(R) 03 system (copyright 2003, Gaussian, Inc.),
 the Gaussian(R) 98 system (copyright 1998, Gaussian, Inc.),
 the Gaussian(R) 94 system (copyright 1995, Gaussian, Inc.),
 the Gaussian 92(TM) system (copyright 1992, Gaussian, Inc.),
 the Gaussian 90(TM) system (copyright 1990, Gaussian, Inc.),
 the Gaussian 88(TM) system (copyright 1988, Gaussian, Inc.),
 the Gaussian 86(TM) system (copyright 1986, Carnegie Mellon
 University), and the Gaussian 82(TM) system (copyright 1983,
 Carnegie Mellon University). Gaussian is a federally registered
 trademark of Gaussian, Inc.
  
 This software contains proprietary and confidential information,
 including trade secrets, belonging to Gaussian, Inc.
  
 This software is provided under written license and may be
 used, copied, transmitted, or stored only in accord with that
 written license.
  
 The following legend is applicable only to US Government
 contracts under FAR:
  
                    RESTRICTED RIGHTS LEGEND
  
 Use, reproduction and disclosure by the US Government is
 subject to restrictions as set forth in subparagraphs (a)
 and (c) of the Commercial Computer Software - Restricted
 Rights clause in FAR 52.227-19.
  
 Gaussian, Inc.
 340 Quinnipiac St., Bldg. 40, Wallingford CT 06492
  
  
 ---------------------------------------------------------------
 Warning -- This program may not be used in any manner that
 competes with the business of Gaussian, Inc. or will provide
 assistance to any competitor of Gaussian, Inc.  The licensee
 of this program is prohibited from giving any competitor of
 Gaussian, Inc. access to this program.  By using this program,
 the user acknowledges that Gaussian, Inc. is engaged in the
 business of creating and licensing software in the field of
 computational chemistry and represents and warrants to the
 licensee that it is not a competitor of Gaussian, Inc. and that
 it will not use this program in any manner prohibited above.
 ---------------------------------------------------------------
  

 Cite this work as:
 Gaussian 09, Revision D.01,
 M. J. Frisch, G. W. Trucks, H. B. Schlegel, G. E. Scuseria, 
 M. A. Robb, J. R. Cheeseman, G. Scalmani, V. Barone, B. Mennucci, 
 G. A. Petersson, H. Nakatsuji, M. Caricato, X. Li, H. P. Hratchian, 
 A. F. Izmaylov, J. Bloino, G. Zheng, J. L. Sonnenberg, M. Hada, 
 M. Ehara, K. Toyota, R. Fukuda, J. Hasegawa, M. Ishida, T. Nakajima, 
 Y. Honda, O. Kitao, H. Nakai, T. Vreven, J. A. Montgomery, Jr., 
 J. E. Peralta, F. Ogliaro, M. Bearpark, J. J. Heyd, E. Brothers, 
 K. N. Kudin, V. N. Staroverov, T. Keith, R. Kobayashi, J. Normand, 
 K. Raghavachari, A. Rendell, J. C. Burant, S. S. Iyengar, J. Tomasi, 
 M. Cossi, N. Rega, J. M. Millam, M. Klene, J. E. Knox, J. B. Cross, 
 V. Bakken, C. Adamo, J. Jaramillo, R. Gomperts, R. E. Stratmann, 
 O. Yazyev, A. J. Austin, R. Cammi, C. Pomelli, J. W. Ochterski, 
 R. L. Martin, K. Morokuma, V. G. Zakrzewski, G. A. Voth, 
 P. Salvador, J. J. Dannenberg, S. Dapprich, A. D. Daniels, 
 O. Farkas, J. B. Foresman, J. V. Ortiz, J. Cioslowski, 
 and D. J. Fox, Gaussian, Inc., Wallingford CT, 2013.
 
 ******************************************
 Gaussian 09:  ES64L-G09RevD.01 24-Apr-2013
                 7-Aug-2023 
 ******************************************
 %chk=./gau_temp_15/mol_chk.chk
 %mem=3500MB
 -------------------------------------------------------------------
 #p b3lyp/6-31g* pop=mk empiricaldispersion=gd3 int(ultrafine) force
 -------------------------------------------------------------------
 1/10=7,30=1,38=1/1,3;
 2/12=2,17=6,18=5,40=1/2;
 3/5=1,6=6,7=1,11=2,16=1,25=1,30=1,71=1,74=-5,75=-5,124=31/1,2,3;
 4//1;
 5/5=2,38=5/2;
 6/7=2,8=2,9=2,10=2,15=8,20=1,28=1/1,2;
 7/29=1/1,2,3,16;
 1/10=7,30=1/3;
 99//99;
 Leave Link    1 at Mon Aug  7 13:07:14 2023, MaxMem=   458752000 cpu:         0.0
 (Enter /opt/apps/apps/binapps/gaussian/g09d01_em64t/g09/l101.exe)
 -------
 aspirin
 -------
 Symbolic Z-matrix:
 Charge =  0 Multiplicity = 1
 C                     14.36254   13.23732   11.65926 
 C                     11.64031   13.72812   11.2997 
 C                     13.91814   14.28916   10.80266 
 C                     12.56586   14.53187   10.63578 
 C                     8.83055   11.40519   13.48536 
 C                     13.40086   12.40062   12.29671 
 C                     12.02697   12.62373   12.1182 
 O                     14.95433   11.08378   13.4412 
 O                     9.37333   11.77738   11.16581 
 O                     12.99408   10.29262   13.44221 
 C                     13.78864   11.32822   13.19637 
 C                     9.71388   11.73498   12.31088 
 O                     11.00779   11.82041   12.73621 
 H                     12.13903   10.63148   13.11729 
 H                     15.3745   13.12745   11.84502 
 H                     10.64201   13.96854   11.06369 
 H                     14.54747   14.90515   10.14367 
 H                     12.28152   15.40496   9.92686 
 H                     7.96399   10.86641   13.09643 
 H                     9.42399   10.75075   14.11279 
 H                     8.50511   12.36973   13.95176 
 
 NAtoms=     21 NQM=       21 NQMF=       0 NMMI=      0 NMMIF=      0
                NMic=       0 NMicF=      0.
                    Isotopes and Nuclear Properties:
 (Nuclear quadrupole moments (NQMom) in fm**2, nuclear magnetic moments (NMagM)
  in nuclear magnetons)

  Atom         1           2           3           4           5           6           7           8           9          10
 IAtWgt=          12          12          12          12          12          12          12          16          16          16
 AtmWgt=  12.0000000  12.0000000  12.0000000  12.0000000  12.0000000  12.0000000  12.0000000  15.9949146  15.9949146  15.9949146
 NucSpn=           0           0           0           0           0           0           0           0           0           0
 AtZEff=   0.0000000   0.0000000   0.0000000   0.0000000   0.0000000   0.0000000   0.0000000   0.0000000   0.0000000   0.0000000
 NQMom=    0.0000000   0.0000000   0.0000000   0.0000000   0.0000000   0.0000000   0.0000000   0.0000000   0.0000000   0.0000000
 NMagM=    0.0000000   0.0000000   0.0000000   0.0000000   0.0000000   0.0000000   0.0000000   0.0000000   0.0000000   0.0000000
 AtZNuc=   6.0000000   6.0000000   6.0000000   6.0000000   6.0000000   6.0000000   6.0000000   8.0000000   8.0000000   8.0000000

  Atom        11          12          13          14          15          16          17          18          19          20
 IAtWgt=          12          12          16           1           1           1           1           1           1           1
 AtmWgt=  12.0000000  12.0000000  15.9949146   1.0078250   1.0078250   1.0078250   1.0078250   1.0078250   1.0078250   1.0078250
 NucSpn=           0           0           0           1           1           1           1           1           1           1
 AtZEff=   0.0000000   0.0000000   0.0000000   0.0000000   0.0000000   0.0000000   0.0000000   0.0000000   0.0000000   0.0000000
 NQMom=    0.0000000   0.0000000   0.0000000   0.0000000   0.0000000   0.0000000   0.0000000   0.0000000   0.0000000   0.0000000
 NMagM=    0.0000000   0.0000000   0.0000000   2.7928460   2.7928460   2.7928460   2.7928460   2.7928460   2.7928460   2.7928460
 AtZNuc=   6.0000000   6.0000000   8.0000000   1.0000000   1.0000000   1.0000000   1.0000000   1.0000000   1.0000000   1.0000000

  Atom        21
 IAtWgt=           1
 AtmWgt=   1.0078250
 NucSpn=           1
 AtZEff=   0.0000000
 NQMom=    0.0000000
 NMagM=    2.7928460
 AtZNuc=   1.0000000
 Leave Link  101 at Mon Aug  7 13:07:14 2023, MaxMem=   458752000 cpu:         0.1
 (Enter /opt/apps/apps/binapps/gaussian/g09d01_em64t/g09/l103.exe)

 GradGradGradGradGradGradGradGradGradGradGradGradGradGradGradGradGradGrad
 Berny optimization.
 Initialization pass.
 Trust Radius=3.00D-01 FncErr=1.00D-07 GrdErr=1.00D-07
 Number of steps in this run=      2 maximum allowed number of steps=      2.
 GradGradGradGradGradGradGradGradGradGradGradGradGradGradGradGradGradGrad

 Leave Link  103 at Mon Aug  7 13:07:14 2023, MaxMem=   458752000 cpu:         0.0
 (Enter /opt/apps/apps/binapps/gaussian/g09d01_em64t/g09/l202.exe)
                          Input orientation:                          
 ---------------------------------------------------------------------
 Center     Atomic      Atomic             Coordinates (Angstroms)
 Number     Number       Type             X           Y           Z
 ---------------------------------------------------------------------
      1          6           0       14.362544   13.237319   11.659261
      2          6           0       11.640308   13.728124   11.299698
      3          6           0       13.918141   14.289163   10.802656
      4          6           0       12.565858   14.531868   10.635779
      5          6           0        8.830552   11.405189   13.485364
      6          6           0       13.400855   12.400620   12.296708
      7          6           0       12.026967   12.623730   12.118202
      8          8           0       14.954327   11.083784   13.441198
      9          8           0        9.373330   11.777378   11.165812
     10          8           0       12.994076   10.292623   13.442209
     11          6           0       13.788644   11.328218   13.196374
     12          6           0        9.713883   11.734978   12.310879
     13          8           0       11.007787   11.820413   12.736206
     14          1           0       12.139028   10.631481   13.117294
     15          1           0       15.374498   13.127453   11.845018
     16          1           0       10.642008   13.968536   11.063690
     17          1           0       14.547468   14.905149   10.143665
     18          1           0       12.281517   15.404962    9.926858
     19          1           0        7.963985   10.866407   13.096428
     20          1           0        9.423991   10.750749   14.112787
     21          1           0        8.505111   12.369730   13.951757
 ---------------------------------------------------------------------
                    Distance matrix (angstroms):
                    1          2          3          4          5
     1  C    0.000000
     2  C    2.789398   0.000000
     3  C    1.427460   2.397987   0.000000
     4  C    2.439559   1.394072   1.383988   0.000000
     5  C    6.106905   4.250634   6.434111   5.643471   0.000000
     6  C    1.425219   2.419880   2.463000   2.828095   4.826122
     7  C    2.458056   1.427985   2.842687   2.475676   3.683889
     8  O    2.857135   4.749871   4.279023   5.046230   6.132363
     9  O    5.221798   2.993747   5.205406   4.249751   2.411110
    10  O    3.704435   4.269157   4.877855   5.102020   4.309826
    11  C    2.517289   3.737951   3.809705   4.279629   4.967103
    12  C    4.928659   2.950632   5.145326   4.331549   1.506137
    13  O    3.797608   2.470425   4.278260   3.767143   2.339658
    14  H    3.722939   3.625131   4.679896   4.642533   3.417618
    15  H    1.034712   3.821303   2.134728   3.364981   6.962770
    16  H    3.838199   1.053613   3.302119   2.049793   3.964419
    17  H    2.261169   3.342661   1.099891   2.075643   7.489980
    18  H    3.468511   2.260006   2.165772   1.160049   6.369482
    19  H    6.973394   4.993296   7.240761   6.377118   1.092014
    20  H    6.049142   4.657283   6.608685   6.021443   1.083569
    21  H    6.349627   4.325287   6.549958   5.670998   1.119721
                    6          7          8          9         10
     6  C    0.000000
     7  C    1.403286   0.000000
     8  O    2.336063   3.562470   0.000000
     9  O    4.229458   2.943662   6.066794   0.000000
    10  O    2.433371   2.849974   2.113888   4.527282   0.000000
    11  C    1.452524   2.438096   1.215938   4.880566   1.328243
    12  C    3.746604   2.485429   5.400364   1.195388   3.757653
    13  O    2.501314   1.437350   4.076128   2.267033   2.603445
    14  H    2.322804   2.231546   2.869739   3.573577   0.975449
    15  H    2.151181   3.396224   2.626960   6.188542   4.031587
    16  H    3.404399   2.199684   5.707051   2.533997   4.970102
    17  H    3.496138   3.931488   5.063801   6.131838   5.879525
    18  H    3.986876   3.549935   6.177951   4.811645   6.245114
    19  H    5.705516   4.533534   7.002214   2.558007   5.074506
    20  H    4.672865   3.776494   5.580910   3.121089   3.661292
    21  H    5.168022   3.978681   6.595962   2.977612   4.972406
                   11         12         13         14         15
    11  C    0.000000
    12  C    4.189657   0.000000
    13  O    2.861324   1.364694   0.000000
    14  H    1.792464   2.783763   1.684783   0.000000
    15  H    2.752880   5.847955   4.644431   4.279817   0.000000
    16  H    4.628276   2.721337   2.746914   4.194555   4.869739
    17  H    4.763327   6.173358   5.363414   5.736487   2.595916
    18  H    5.438843   5.073961   4.729040   5.743284   4.293358
    19  H    5.843792   2.105622   3.210080   4.181699   7.848189
    20  H    4.497052   2.073552   2.355327   2.894245   6.797061
    21  H    5.437929   2.134601   2.835965   4.113781   7.225024
                   16         17         18         19         20
    16  H    0.000000
    17  H    4.120232   0.000000
    18  H    2.458394   2.330527   0.000000
    19  H    4.574607   8.268766   7.020380   0.000000
    20  H    4.597250   7.698245   6.881072   1.782689   0.000000
    21  H    3.932357   7.578917   6.298705   1.812288   1.868521
                   21
    21  H    0.000000
 Stoichiometry    C9H8O4
 Framework group  C1[X(C9H8O4)]
 Deg. of freedom    57
 Full point group                 C1      NOp   1
 Largest Abelian subgroup         C1      NOp   1
 Largest concise Abelian subgroup C1      NOp   1
                         Standard orientation:                         
 ---------------------------------------------------------------------
 Center     Atomic      Atomic             Coordinates (Angstroms)
 Number     Number       Type             X           Y           Z
 ---------------------------------------------------------------------
      1          6           0       -2.462448    0.496951   -0.006612
      2          6           0        0.003495    1.785551   -0.205045
      3          6           0       -2.383531    1.922152   -0.021235
      4          6           0       -1.156971    2.554225   -0.128275
      5          6           0        3.517492   -0.565472   -0.643690
      6          6           0       -1.262210   -0.270669   -0.044523
      7          6           0       -0.011425    0.359531   -0.131676
      8          8           0       -2.314182   -2.356308   -0.018898
      9          8           0        2.642783    0.999093    0.968909
     10          8           0       -0.234053   -2.440998    0.347728
     11          6           0       -1.276742   -1.723088   -0.054311
     12          6           0        2.453969    0.175161    0.123664
     13          8           0        1.234022   -0.356438   -0.178856
     14          1           0        0.472165   -1.768231    0.335835
     15          1           0       -3.390690    0.039949   -0.018661
     16          1           0        0.881524    2.367203   -0.234164
     17          1           0       -3.212729    2.624283    0.149655
     18          1           0       -1.172731    3.714137   -0.136673
     19          1           0        4.438506   -0.504146   -0.060194
     20          1           0        3.173498   -1.592029   -0.688084
     21          1           0        3.652118   -0.050012   -1.628551
 ---------------------------------------------------------------------
 Rotational constants (GHZ):      1.0843880      0.6876051      0.4404603
 Leave Link  202 at Mon Aug  7 13:07:14 2023, MaxMem=   458752000 cpu:         0.0
 (Enter /opt/apps/apps/binapps/gaussian/g09d01_em64t/g09/l301.exe)
 Standard basis: 6-31G(d) (6D, 7F)
 Ernie: Thresh=  0.10000D-02 Tol=  0.10000D-05 Strict=F.
 There are   211 symmetry adapted cartesian basis functions of A   symmetry.
 There are   211 symmetry adapted basis functions of A   symmetry.
   211 basis functions,   396 primitive gaussians,   211 cartesian basis functions
    47 alpha electrons       47 beta electrons
       nuclear repulsion energy       770.6568435148 Hartrees.
 IExCor=  402 DFT=T Ex+Corr=B3LYP ExCW=0 ScaHFX=  0.200000
 ScaDFX=  0.800000  0.720000  1.000000  0.810000 ScalE2=  1.000000  1.000000
 IRadAn=      5 IRanWt=     -1 IRanGd=            0 ICorTp=0 IEmpDi=131
 NAtoms=   21 NActive=   21 NUniq=   21 SFac= 1.00D+00 NAtFMM=   60 NAOKFM=F Big=F
 Integral buffers will be    131072 words long.
 Raffenetti 2 integral format.
 Two-electron integral symmetry is turned on.
 R6Disp:  Grimme-D3 Dispersion energy=       -0.0172856439 Hartrees.
 Nuclear repulsion after empirical dispersion term =      770.6395578708 Hartrees.
 Leave Link  301 at Mon Aug  7 13:07:14 2023, MaxMem=   458752000 cpu:         0.1
 (Enter /opt/apps/apps/binapps/gaussian/g09d01_em64t/g09/l302.exe)
 NPDir=0 NMtPBC=     1 NCelOv=     1 NCel=       1 NClECP=     1 NCelD=      1
         NCelK=      1 NCelE2=     1 NClLst=     1 CellRange=     0.0.
 One-electron integrals computed using PRISM.
 NBasis=   211 RedAO= T EigKep=  4.60D-04  NBF=   211
 NBsUse=   211 1.00D-06 EigRej= -1.00D+00 NBFU=   211
 Precomputing XC quadrature grid using
 IXCGrd= 4 IRadAn=           5 IRanWt=          -1 IRanGd=           0 AccXCQ= 0.00D+00.
 Generated NRdTot=       0 NPtTot=           0 NUsed=           0 NTot=          32
 NSgBfM=   210   210   210   210   210 MxSgAt=    21 MxSgA2=    21.
 Leave Link  302 at Mon Aug  7 13:07:15 2023, MaxMem=   458752000 cpu:         0.7
 (Enter /opt/apps/apps/binapps/gaussian/g09d01_em64t/g09/l303.exe)
 DipDrv:  MaxL=1.
 Leave Link  303 at Mon Aug  7 13:07:15 2023, MaxMem=   458752000 cpu:         0.0
 (Enter /opt/apps/apps/binapps/gaussian/g09d01_em64t/g09/l401.exe)
 ExpMin= 1.61D-01 ExpMax= 5.48D+03 ExpMxC= 8.25D+02 IAcc=3 IRadAn=         5 AccDes= 0.00D+00
 Harris functional with IExCor=  402 and IRadAn=       5 diagonalized for initial guess.
 HarFok:  IExCor=  402 AccDes= 0.00D+00 IRadAn=         5 IDoV= 1 UseB2=F ITyADJ=14
 ICtDFT=  3500011 ScaDFX=  1.000000  1.000000  1.000000  1.000000
 FoFCou: FMM=F IPFlag=           0 FMFlag=      100000 FMFlg1=           0
         NFxFlg=           0 DoJE=T BraDBF=F KetDBF=T FulRan=T
         wScrn=  0.000000 ICntrl=     500 IOpCl=  0 I1Cent=   200000004 NGrid=           0
         NMat0=    1 NMatS0=      1 NMatT0=    0 NMatD0=    1 NMtDS0=    0 NMtDT0=    0
 Petite list used in FoFCou.
 Harris En= -648.696192435311    
 JPrj=0 DoOrth=F DoCkMO=F.
 Leave Link  401 at Mon Aug  7 13:07:23 2023, MaxMem=   458752000 cpu:         8.4
 (Enter /opt/apps/apps/binapps/gaussian/g09d01_em64t/g09/l502.exe)
 Closed shell SCF:
 Using DIIS extrapolation, IDIIS=  1040.
 Integral symmetry usage will be decided dynamically.
 Keep R1 ints in memory in canonical form, NReq=255049085.
 IVT=      154966 IEndB=      154966 NGot=   458752000 MDV=   208466874
 LenX=   208466874 LenY=   208421912
 Requested convergence on RMS density matrix=1.00D-08 within 128 cycles.
 Requested convergence on MAX density matrix=1.00D-06.
 Requested convergence on             energy=1.00D-06.
 No special actions if energy rises.
 FoFCou: FMM=F IPFlag=           0 FMFlag=           0 FMFlg1=           0
         NFxFlg=           0 DoJE=F BraDBF=F KetDBF=F FulRan=T
         wScrn=  0.000000 ICntrl=     600 IOpCl=  0 I1Cent=           0 NGrid=           0
         NMat0=    1 NMatS0=  22366 NMatT0=    0 NMatD0=    1 NMtDS0=    0 NMtDT0=    0
 Symmetry not used in FoFCou.
 Integral accuracy reduced to 1.0D-05 until final iterations.

 Cycle   1  Pass 0  IDiag  1:
 E= -648.290453245131    
 DIIS: error= 2.36D-02 at cycle   1 NSaved=   1.
 NSaved= 1 IEnMin= 1 EnMin= -648.290453245131     IErMin= 1 ErrMin= 2.36D-02
 ErrMax= 2.36D-02  0.00D+00 EMaxC= 1.00D-01 BMatC= 4.27D-01 BMatP= 4.27D-01
 IDIUse=3 WtCom= 7.64D-01 WtEn= 2.36D-01
 Coeff-Com:  0.100D+01
 Coeff-En:   0.100D+01
 Coeff:      0.100D+01
 Gap=     0.233 Goal=   None    Shift=    0.000
 GapD=    0.233 DampG=1.000 DampE=0.500 DampFc=0.5000 IDamp=-1.
 Damping current iteration by 5.00D-01
 RMSDP=8.21D-03 MaxDP=2.49D-01              OVMax= 3.09D-01

 Cycle   2  Pass 0  IDiag  1:
 E= -648.318944364893     Delta-E=       -0.028491119762 Rises=F Damp=T
 DIIS: error= 1.47D-02 at cycle   2 NSaved=   2.
 NSaved= 2 IEnMin= 2 EnMin= -648.318944364893     IErMin= 2 ErrMin= 1.47D-02
 ErrMax= 1.47D-02  0.00D+00 EMaxC= 1.00D-01 BMatC= 1.20D-01 BMatP= 4.27D-01
 IDIUse=3 WtCom= 8.53D-01 WtEn= 1.47D-01
 Coeff-Com:  0.305D+00 0.695D+00
 Coeff-En:   0.467D+00 0.533D+00
 Coeff:      0.329D+00 0.671D+00
 Gap=     0.199 Goal=   None    Shift=    0.000
 RMSDP=2.91D-03 MaxDP=9.48D-02 DE=-2.85D-02 OVMax= 2.64D-01

 Cycle   3  Pass 0  IDiag  1:
 E= -648.591349562050     Delta-E=       -0.272405197157 Rises=F Damp=F
 DIIS: error= 1.31D-02 at cycle   3 NSaved=   3.
 NSaved= 3 IEnMin= 3 EnMin= -648.591349562050     IErMin= 3 ErrMin= 1.31D-02
 ErrMax= 1.31D-02  0.00D+00 EMaxC= 1.00D-01 BMatC= 7.46D-02 BMatP= 1.20D-01
 IDIUse=3 WtCom= 8.69D-01 WtEn= 1.31D-01
 Coeff-Com:  0.120D+00 0.429D+00 0.451D+00
 Coeff-En:   0.000D+00 0.000D+00 0.100D+01
 Coeff:      0.104D+00 0.373D+00 0.523D+00
 Gap=     0.209 Goal=   None    Shift=    0.000
 RMSDP=1.63D-03 MaxDP=4.90D-02 DE=-2.72D-01 OVMax= 8.64D-02

 Cycle   4  Pass 0  IDiag  1:
 E= -648.648070670099     Delta-E=       -0.056721108049 Rises=F Damp=F
 DIIS: error= 7.21D-03 at cycle   4 NSaved=   4.
 NSaved= 4 IEnMin= 4 EnMin= -648.648070670099     IErMin= 4 ErrMin= 7.21D-03
 ErrMax= 7.21D-03  0.00D+00 EMaxC= 1.00D-01 BMatC= 1.28D-02 BMatP= 7.46D-02
 IDIUse=3 WtCom= 9.28D-01 WtEn= 7.21D-02
 Coeff-Com:  0.289D-01 0.826D-01 0.301D+00 0.588D+00
 Coeff-En:   0.000D+00 0.000D+00 0.151D+00 0.849D+00
 Coeff:      0.268D-01 0.766D-01 0.290D+00 0.606D+00
 Gap=     0.195 Goal=   None    Shift=    0.000
 RMSDP=5.35D-04 MaxDP=2.09D-02 DE=-5.67D-02 OVMax= 3.51D-02

 Cycle   5  Pass 0  IDiag  1:
 E= -648.657318159938     Delta-E=       -0.009247489839 Rises=F Damp=F
 DIIS: error= 2.66D-03 at cycle   5 NSaved=   5.
 NSaved= 5 IEnMin= 5 EnMin= -648.657318159938     IErMin= 5 ErrMin= 2.66D-03
 ErrMax= 2.66D-03  0.00D+00 EMaxC= 1.00D-01 BMatC= 9.74D-04 BMatP= 1.28D-02
 IDIUse=3 WtCom= 9.73D-01 WtEn= 2.66D-02
 Coeff-Com:  0.527D-02 0.321D-02 0.119D+00 0.353D+00 0.520D+00
 Coeff-En:   0.000D+00 0.000D+00 0.000D+00 0.000D+00 0.100D+01
 Coeff:      0.513D-02 0.313D-02 0.116D+00 0.343D+00 0.533D+00
 Gap=     0.194 Goal=   None    Shift=    0.000
 RMSDP=1.69D-04 MaxDP=7.19D-03 DE=-9.25D-03 OVMax= 1.05D-02

 Cycle   6  Pass 0  IDiag  1:
 E= -648.658035963926     Delta-E=       -0.000717803988 Rises=F Damp=F
 DIIS: error= 7.54D-04 at cycle   6 NSaved=   6.
 NSaved= 6 IEnMin= 6 EnMin= -648.658035963926     IErMin= 6 ErrMin= 7.54D-04
 ErrMax= 7.54D-04  0.00D+00 EMaxC= 1.00D-01 BMatC= 9.77D-05 BMatP= 9.74D-04
 IDIUse=3 WtCom= 9.92D-01 WtEn= 7.54D-03
 Coeff-Com:  0.125D-02-0.374D-02 0.446D-01 0.145D+00 0.315D+00 0.498D+00
 Coeff-En:   0.000D+00 0.000D+00 0.000D+00 0.000D+00 0.508D-01 0.949D+00
 Coeff:      0.124D-02-0.371D-02 0.442D-01 0.144D+00 0.313D+00 0.502D+00
 Gap=     0.195 Goal=   None    Shift=    0.000
 RMSDP=5.11D-05 MaxDP=1.70D-03 DE=-7.18D-04 OVMax= 3.53D-03

 Cycle   7  Pass 0  IDiag  1:
 E= -648.658110182313     Delta-E=       -0.000074218387 Rises=F Damp=F
 DIIS: error= 1.63D-04 at cycle   7 NSaved=   7.
 NSaved= 7 IEnMin= 7 EnMin= -648.658110182313     IErMin= 7 ErrMin= 1.63D-04
 ErrMax= 1.63D-04  0.00D+00 EMaxC= 1.00D-01 BMatC= 1.10D-05 BMatP= 9.77D-05
 IDIUse=3 WtCom= 9.98D-01 WtEn= 1.63D-03
 Coeff-Com:  0.315D-03-0.310D-02 0.152D-01 0.512D-01 0.144D+00 0.310D+00
 Coeff-Com:  0.483D+00
 Coeff-En:   0.000D+00 0.000D+00 0.000D+00 0.000D+00 0.000D+00 0.256D-01
 Coeff-En:   0.974D+00
 Coeff:      0.314D-03-0.309D-02 0.152D-01 0.511D-01 0.144D+00 0.309D+00
 Coeff:      0.483D+00
 Gap=     0.195 Goal=   None    Shift=    0.000
 RMSDP=1.65D-05 MaxDP=5.70D-04 DE=-7.42D-05 OVMax= 1.03D-03

 Cycle   8  Pass 0  IDiag  1:
 E= -648.658118617886     Delta-E=       -0.000008435573 Rises=F Damp=F
 DIIS: error= 5.37D-05 at cycle   8 NSaved=   8.
 NSaved= 8 IEnMin= 8 EnMin= -648.658118617886     IErMin= 8 ErrMin= 5.37D-05
 ErrMax= 5.37D-05  0.00D+00 EMaxC= 1.00D-01 BMatC= 9.53D-07 BMatP= 1.10D-05
 IDIUse=1 WtCom= 1.00D+00 WtEn= 0.00D+00
 Coeff-Com:  0.145D-03-0.140D-02 0.403D-02 0.127D-01 0.489D-01 0.117D+00
 Coeff-Com:  0.275D+00 0.544D+00
 Coeff:      0.145D-03-0.140D-02 0.403D-02 0.127D-01 0.489D-01 0.117D+00
 Coeff:      0.275D+00 0.544D+00
 Gap=     0.195 Goal=   None    Shift=    0.000
 RMSDP=5.13D-06 MaxDP=1.87D-04 DE=-8.44D-06 OVMax= 2.07D-04

 Initial convergence to 1.0D-05 achieved.  Increase integral accuracy.
 Cycle   9  Pass 1  IDiag  1:
 E= -648.658115369749     Delta-E=        0.000003248137 Rises=F Damp=F
 DIIS: error= 1.70D-05 at cycle   1 NSaved=   1.
 NSaved= 1 IEnMin= 1 EnMin= -648.658115369749     IErMin= 1 ErrMin= 1.70D-05
 ErrMax= 1.70D-05  0.00D+00 EMaxC= 1.00D-01 BMatC= 9.52D-08 BMatP= 9.52D-08
 IDIUse=1 WtCom= 1.00D+00 WtEn= 0.00D+00
 Coeff-Com:  0.100D+01
 Coeff:      0.100D+01
 Gap=     0.195 Goal=   None    Shift=    0.000
 RMSDP=5.13D-06 MaxDP=1.87D-04 DE= 3.25D-06 OVMax= 2.00D-04

 Cycle  10  Pass 1  IDiag  1:
 E= -648.658115147455     Delta-E=        0.000000222294 Rises=F Damp=F
 DIIS: error= 3.17D-05 at cycle   2 NSaved=   2.
 NSaved= 2 IEnMin= 1 EnMin= -648.658115369749     IErMin= 1 ErrMin= 1.70D-05
 ErrMax= 3.17D-05  0.00D+00 EMaxC= 1.00D-01 BMatC= 3.65D-07 BMatP= 9.52D-08
 IDIUse=1 WtCom= 1.00D+00 WtEn= 0.00D+00
 Coeff-Com:  0.666D+00 0.334D+00
 Coeff:      0.666D+00 0.334D+00
 Gap=     0.195 Goal=   None    Shift=    0.000
 RMSDP=2.43D-06 MaxDP=8.76D-05 DE= 2.22D-07 OVMax= 1.39D-04

 Cycle  11  Pass 1  IDiag  1:
 E= -648.658115451613     Delta-E=       -0.000000304158 Rises=F Damp=F
 DIIS: error= 2.61D-06 at cycle   3 NSaved=   3.
 NSaved= 3 IEnMin= 3 EnMin= -648.658115451613     IErMin= 3 ErrMin= 2.61D-06
 ErrMax= 2.61D-06  0.00D+00 EMaxC= 1.00D-01 BMatC= 3.96D-09 BMatP= 9.52D-08
 IDIUse=1 WtCom= 1.00D+00 WtEn= 0.00D+00
 Coeff-Com:  0.281D+00 0.166D+00 0.553D+00
 Coeff:      0.281D+00 0.166D+00 0.553D+00
 Gap=     0.195 Goal=   None    Shift=    0.000
 RMSDP=3.57D-07 MaxDP=1.24D-05 DE=-3.04D-07 OVMax= 1.74D-05

 Cycle  12  Pass 1  IDiag  1:
 E= -648.658115453989     Delta-E=       -0.000000002376 Rises=F Damp=F
 DIIS: error= 1.84D-06 at cycle   4 NSaved=   4.
 NSaved= 4 IEnMin= 4 EnMin= -648.658115453989     IErMin= 4 ErrMin= 1.84D-06
 ErrMax= 1.84D-06  0.00D+00 EMaxC= 1.00D-01 BMatC= 8.26D-10 BMatP= 3.96D-09
 IDIUse=1 WtCom= 1.00D+00 WtEn= 0.00D+00
 Coeff-Com:  0.536D-01 0.445D-01 0.334D+00 0.568D+00
 Coeff:      0.536D-01 0.445D-01 0.334D+00 0.568D+00
 Gap=     0.195 Goal=   None    Shift=    0.000
 RMSDP=1.73D-07 MaxDP=5.91D-06 DE=-2.38D-09 OVMax= 1.18D-05

 Cycle  13  Pass 1  IDiag  1:
 E= -648.658115454651     Delta-E=       -0.000000000661 Rises=F Damp=F
 DIIS: error= 8.15D-07 at cycle   5 NSaved=   5.
 NSaved= 5 IEnMin= 5 EnMin= -648.658115454651     IErMin= 5 ErrMin= 8.15D-07
 ErrMax= 8.15D-07  0.00D+00 EMaxC= 1.00D-01 BMatC= 1.46D-10 BMatP= 8.26D-10
 IDIUse=1 WtCom= 1.00D+00 WtEn= 0.00D+00
 Coeff-Com: -0.366D-02 0.676D-02 0.133D+00 0.363D+00 0.500D+00
 Coeff:     -0.366D-02 0.676D-02 0.133D+00 0.363D+00 0.500D+00
 Gap=     0.195 Goal=   None    Shift=    0.000
 RMSDP=7.07D-08 MaxDP=2.37D-06 DE=-6.61D-10 OVMax= 5.79D-06

 Cycle  14  Pass 1  IDiag  1:
 E= -648.658115454806     Delta-E=       -0.000000000156 Rises=F Damp=F
 DIIS: error= 1.47D-07 at cycle   6 NSaved=   6.
 NSaved= 6 IEnMin= 6 EnMin= -648.658115454806     IErMin= 6 ErrMin= 1.47D-07
 ErrMax= 1.47D-07  0.00D+00 EMaxC= 1.00D-01 BMatC= 1.22D-11 BMatP= 1.46D-10
 IDIUse=1 WtCom= 1.00D+00 WtEn= 0.00D+00
 Coeff-Com: -0.684D-02 0.727D-04 0.446D-01 0.155D+00 0.286D+00 0.521D+00
 Coeff:     -0.684D-02 0.727D-04 0.446D-01 0.155D+00 0.286D+00 0.521D+00
 Gap=     0.195 Goal=   None    Shift=    0.000
 RMSDP=1.87D-08 MaxDP=8.67D-07 DE=-1.56D-10 OVMax= 1.36D-06

 Cycle  15  Pass 1  IDiag  1:
 E= -648.658115454788     Delta-E=        0.000000000018 Rises=F Damp=F
 DIIS: error= 8.55D-08 at cycle   7 NSaved=   7.
 NSaved= 7 IEnMin= 6 EnMin= -648.658115454806     IErMin= 7 ErrMin= 8.55D-08
 ErrMax= 8.55D-08  0.00D+00 EMaxC= 1.00D-01 BMatC= 1.45D-12 BMatP= 1.22D-11
 IDIUse=1 WtCom= 1.00D+00 WtEn= 0.00D+00
 Coeff-Com: -0.395D-02-0.471D-03 0.150D-01 0.618D-01 0.126D+00 0.323D+00
 Coeff-Com:  0.478D+00
 Coeff:     -0.395D-02-0.471D-03 0.150D-01 0.618D-01 0.126D+00 0.323D+00
 Coeff:      0.478D+00
 Gap=     0.195 Goal=   None    Shift=    0.000
 RMSDP=6.58D-09 MaxDP=2.80D-07 DE= 1.84D-11 OVMax= 3.73D-07

 SCF Done:  E(RB3LYP) =  -648.658115455     A.U. after   15 cycles
            NFock= 15  Conv=0.66D-08     -V/T= 2.0090
 KE= 6.428952320437D+02 PE=-3.055258738361D+03 EE= 9.930658329920D+02
 Leave Link  502 at Mon Aug  7 13:09:36 2023, MaxMem=   458752000 cpu:       132.6
 (Enter /opt/apps/apps/binapps/gaussian/g09d01_em64t/g09/l601.exe)
 Copying SCF densities to generalized density rwf, IOpCl= 0 IROHF=0.

 **********************************************************************

            Population analysis using the SCF density.

 **********************************************************************

 Orbital symmetries:
       Occupied  (A) (A) (A) (A) (A) (A) (A) (A) (A) (A) (A) (A)
                 (A) (A) (A) (A) (A) (A) (A) (A) (A) (A) (A) (A)
                 (A) (A) (A) (A) (A) (A) (A) (A) (A) (A) (A) (A)
                 (A) (A) (A) (A) (A) (A) (A) (A) (A) (A) (A)
       Virtual   (A) (A) (A) (A) (A) (A) (A) (A) (A) (A) (A) (A)
                 (A) (A) (A) (A) (A) (A) (A) (A) (A) (A) (A) (A)
                 (A) (A) (A) (A) (A) (A) (A) (A) (A) (A) (A) (A)
                 (A) (A) (A) (A) (A) (A) (A) (A) (A) (A) (A) (A)
                 (A) (A) (A) (A) (A) (A) (A) (A) (A) (A) (A) (A)
                 (A) (A) (A) (A) (A) (A) (A) (A) (A) (A) (A) (A)
                 (A) (A) (A) (A) (A) (A) (A) (A) (A) (A) (A) (A)
                 (A) (A) (A) (A) (A) (A) (A) (A) (A) (A) (A) (A)
                 (A) (A) (A) (A) (A) (A) (A) (A) (A) (A) (A) (A)
                 (A) (A) (A) (A) (A) (A) (A) (A) (A) (A) (A) (A)
                 (A) (A) (A) (A) (A) (A) (A) (A) (A) (A) (A) (A)
                 (A) (A) (A) (A) (A) (A) (A) (A) (A) (A) (A) (A)
                 (A) (A) (A) (A) (A) (A) (A) (A) (A) (A) (A) (A)
                 (A) (A) (A) (A) (A) (A) (A) (A)
 The electronic state is 1-A.
 Alpha  occ. eigenvalues --  -19.24551 -19.17862 -19.17426 -19.11058 -10.35564
 Alpha  occ. eigenvalues --  -10.30609 -10.29837 -10.23550 -10.22544 -10.22419
 Alpha  occ. eigenvalues --  -10.22370 -10.21974 -10.21723  -1.14660  -1.10375
 Alpha  occ. eigenvalues --   -1.06234  -0.99502  -0.88316  -0.80611  -0.78519
 Alpha  occ. eigenvalues --   -0.75899  -0.67767  -0.66238  -0.60775  -0.59701
 Alpha  occ. eigenvalues --   -0.54789  -0.52324  -0.51613  -0.50479  -0.49119
 Alpha  occ. eigenvalues --   -0.47884  -0.46232  -0.45078  -0.44007  -0.42991
 Alpha  occ. eigenvalues --   -0.42410  -0.41688  -0.40177  -0.39312  -0.38161
 Alpha  occ. eigenvalues --   -0.36277  -0.35211  -0.30592  -0.30037  -0.27335
 Alpha  occ. eigenvalues --   -0.26518  -0.25490
 Alpha virt. eigenvalues --   -0.05978  -0.04586  -0.01451   0.04615   0.05747
 Alpha virt. eigenvalues --    0.07616   0.09790   0.12349   0.13758   0.14032
 Alpha virt. eigenvalues --    0.14649   0.16378   0.17579   0.18781   0.20510
 Alpha virt. eigenvalues --    0.23596   0.24902   0.27641   0.29563   0.30139
 Alpha virt. eigenvalues --    0.32038   0.33140   0.37298   0.41284   0.46418
 Alpha virt. eigenvalues --    0.47531   0.48888   0.50877   0.52393   0.53060
 Alpha virt. eigenvalues --    0.53531   0.54416   0.55541   0.56536   0.56896
 Alpha virt. eigenvalues --    0.58146   0.58695   0.58986   0.60227   0.61563
 Alpha virt. eigenvalues --    0.63448   0.63685   0.65360   0.66640   0.68903
 Alpha virt. eigenvalues --    0.71636   0.74001   0.76138   0.76744   0.77780
 Alpha virt. eigenvalues --    0.81145   0.82452   0.83781   0.84531   0.86015
 Alpha virt. eigenvalues --    0.87083   0.87587   0.88896   0.89946   0.92093
 Alpha virt. eigenvalues --    0.94203   0.95890   0.97247   0.98742   1.00978
 Alpha virt. eigenvalues --    1.02540   1.03351   1.05416   1.07815   1.08394
 Alpha virt. eigenvalues --    1.10121   1.12220   1.15106   1.18048   1.18644
 Alpha virt. eigenvalues --    1.20736   1.23620   1.25216   1.25343   1.33656
 Alpha virt. eigenvalues --    1.35245   1.35891   1.40590   1.41392   1.42041
 Alpha virt. eigenvalues --    1.44867   1.48077   1.49277   1.51408   1.55812
 Alpha virt. eigenvalues --    1.59265   1.64312   1.65300   1.67205   1.69425
 Alpha virt. eigenvalues --    1.71294   1.73763   1.75544   1.76693   1.77941
 Alpha virt. eigenvalues --    1.80544   1.81535   1.83575   1.83741   1.85445
 Alpha virt. eigenvalues --    1.86237   1.88244   1.89613   1.93786   1.96311
 Alpha virt. eigenvalues --    1.97056   1.98986   2.01209   2.02796   2.08181
 Alpha virt. eigenvalues --    2.08827   2.11721   2.14666   2.17746   2.18497
 Alpha virt. eigenvalues --    2.20052   2.22555   2.24721   2.25538   2.27742
 Alpha virt. eigenvalues --    2.34092   2.35618   2.39374   2.44041   2.49392
 Alpha virt. eigenvalues --    2.51908   2.53535   2.54536   2.58255   2.59821
 Alpha virt. eigenvalues --    2.62515   2.64236   2.68002   2.69392   2.72879
 Alpha virt. eigenvalues --    2.78278   2.79088   2.83057   2.89555   2.93620
 Alpha virt. eigenvalues --    2.96083   3.00051   3.05242   3.10979   3.28813
 Alpha virt. eigenvalues --    3.37065   3.93782   4.02384   4.04478   4.06903
 Alpha virt. eigenvalues --    4.09224   4.10535   4.18308   4.27380   4.32023
 Alpha virt. eigenvalues --    4.39400   4.44094   4.50154   4.76454
          Condensed to atoms (all electrons):
               1          2          3          4          5          6
     1  C    4.984022  -0.043309   0.473087  -0.032264   0.000003   0.507894
     2  C   -0.043309   4.991667  -0.030835   0.529781   0.000026  -0.031149
     3  C    0.473087  -0.030835   4.925425   0.527779   0.000000  -0.015271
     4  C   -0.032264   0.529781   0.527779   4.858208  -0.000008  -0.029870
     5  C    0.000003   0.000026   0.000000  -0.000008   5.258116  -0.000300
     6  C    0.507894  -0.031149  -0.015271  -0.029870  -0.000300   5.148659
     7  C   -0.047205   0.469094  -0.037966  -0.018482   0.004423   0.415296
     8  O    0.003306  -0.000131   0.000871  -0.000009   0.000000  -0.091851
     9  O   -0.000008  -0.000880   0.000001  -0.000005  -0.078141  -0.000267
    10  O    0.004439   0.000251  -0.000016  -0.000015  -0.000117  -0.083967
    11  C   -0.038732   0.006028   0.006655  -0.000226  -0.000037   0.235362
    12  C   -0.000057   0.003154   0.000026   0.000053   0.366313  -0.000633
    13  O    0.002914  -0.051235  -0.000100   0.003237  -0.104811  -0.045578
    14  H   -0.000509   0.001217  -0.000049  -0.000016  -0.000355   0.004531
    15  H    0.364990   0.000135  -0.042545   0.004638   0.000000  -0.039119
    16  H    0.000856   0.352834   0.005834  -0.040382  -0.000065   0.003966
    17  H   -0.034455   0.005993   0.357668  -0.043571   0.000000   0.002663
    18  H    0.003855  -0.032261  -0.038550   0.353680   0.000000   0.000423
    19  H    0.000000   0.000007   0.000000   0.000000   0.359724   0.000004
    20  H    0.000000   0.000017   0.000000   0.000000   0.354550   0.000006
    21  H    0.000000   0.000028   0.000000  -0.000003   0.359121   0.000008
               7          8          9         10         11         12
     1  C   -0.047205   0.003306  -0.000008   0.004439  -0.038732  -0.000057
     2  C    0.469094  -0.000131  -0.000880   0.000251   0.006028   0.003154
     3  C   -0.037966   0.000871   0.000001  -0.000016   0.006655   0.000026
     4  C   -0.018482  -0.000009  -0.000005  -0.000015  -0.000226   0.000053
     5  C    0.004423   0.000000  -0.078141  -0.000117  -0.000037   0.366313
     6  C    0.415296  -0.091851  -0.000267  -0.083967   0.235362  -0.000633
     7  C    4.804732   0.003833   0.000108   0.002429  -0.030766  -0.004706
     8  O    0.003833   8.070983   0.000000  -0.118257   0.575660   0.000003
     9  O    0.000108   0.000000   7.958332  -0.000004   0.000038   0.588749
    10  O    0.002429  -0.118257  -0.000004   8.263495   0.302440   0.000460
    11  C   -0.030766   0.575660   0.000038   0.302440   4.473198   0.000484
    12  C   -0.004706   0.000003   0.588749   0.000460   0.000484   4.332534
    13  O    0.164080  -0.000006  -0.072818  -0.026849  -0.003193   0.197127
    14  H   -0.005229   0.005729  -0.000047   0.208615  -0.024640  -0.000133
    15  H    0.005726   0.012299   0.000000   0.000260  -0.006931   0.000000
    16  H   -0.038141   0.000000   0.006442   0.000005  -0.000105   0.005305
    17  H    0.000841   0.000002   0.000000   0.000000  -0.000072   0.000000
    18  H    0.002767   0.000000   0.000000   0.000000   0.000004  -0.000009
    19  H   -0.000099   0.000000   0.002583   0.000002   0.000000  -0.027236
    20  H   -0.000122   0.000000   0.002459   0.000251   0.000022  -0.029109
    21  H    0.000000   0.000000   0.000276  -0.000001   0.000001  -0.020964
              13         14         15         16         17         18
     1  C    0.002914  -0.000509   0.364990   0.000856  -0.034455   0.003855
     2  C   -0.051235   0.001217   0.000135   0.352834   0.005993  -0.032261
     3  C   -0.000100  -0.000049  -0.042545   0.005834   0.357668  -0.038550
     4  C    0.003237  -0.000016   0.004638  -0.040382  -0.043571   0.353680
     5  C   -0.104811  -0.000355   0.000000  -0.000065   0.000000   0.000000
     6  C   -0.045578   0.004531  -0.039119   0.003966   0.002663   0.000423
     7  C    0.164080  -0.005229   0.005726  -0.038141   0.000841   0.002767
     8  O   -0.000006   0.005729   0.012299   0.000000   0.000002   0.000000
     9  O   -0.072818  -0.000047   0.000000   0.006442   0.000000   0.000000
    10  O   -0.026849   0.208615   0.000260   0.000005   0.000000   0.000000
    11  C   -0.003193  -0.024640  -0.006931  -0.000105  -0.000072   0.000004
    12  C    0.197127  -0.000133   0.000000   0.005305   0.000000  -0.000009
    13  O    8.469471   0.040413  -0.000021  -0.006629   0.000001  -0.000025
    14  H    0.040413   0.337015  -0.000076   0.000002   0.000000   0.000000
    15  H   -0.000021  -0.000076   0.526326   0.000013  -0.003378  -0.000167
    16  H   -0.006629   0.000002   0.000013   0.552998  -0.000283  -0.005137
    17  H    0.000001   0.000000  -0.003378  -0.000283   0.572403  -0.006046
    18  H   -0.000025   0.000000  -0.000167  -0.005137  -0.006046   0.568991
    19  H    0.003672  -0.000018   0.000000   0.000009   0.000000   0.000000
    20  H    0.005141   0.000689   0.000000  -0.000001   0.000000   0.000000
    21  H    0.000695   0.000004   0.000000  -0.000023   0.000000   0.000000
              19         20         21
     1  C    0.000000   0.000000   0.000000
     2  C    0.000007   0.000017   0.000028
     3  C    0.000000   0.000000   0.000000
     4  C    0.000000   0.000000  -0.000003
     5  C    0.359724   0.354550   0.359121
     6  C    0.000004   0.000006   0.000008
     7  C   -0.000099  -0.000122   0.000000
     8  O    0.000000   0.000000   0.000000
     9  O    0.002583   0.002459   0.000276
    10  O    0.000002   0.000251  -0.000001
    11  C    0.000000   0.000022   0.000001
    12  C   -0.027236  -0.029109  -0.020964
    13  O    0.003672   0.005141   0.000695
    14  H   -0.000018   0.000689   0.000004
    15  H    0.000000   0.000000   0.000000
    16  H    0.000009  -0.000001  -0.000023
    17  H    0.000000   0.000000   0.000000
    18  H    0.000000   0.000000   0.000000
    19  H    0.507685  -0.023316  -0.019823
    20  H   -0.023316   0.510203  -0.014711
    21  H   -0.019823  -0.014711   0.501665
 Mulliken charges:
               1
     1  C   -0.148826
     2  C   -0.170431
     3  C   -0.132014
     4  C   -0.112525
     5  C   -0.518441
     6  C    0.019192
     7  C    0.309387
     8  O   -0.462433
     9  O   -0.406818
    10  O   -0.553421
    11  C    0.504809
    12  C    0.588639
    13  O   -0.575485
    14  H    0.432857
    15  H    0.177851
    16  H    0.162502
    17  H    0.148231
    18  H    0.152474
    19  H    0.196806
    20  H    0.193921
    21  H    0.193726
 Sum of Mulliken charges =   0.00000
 Mulliken charges with hydrogens summed into heavy atoms:
               1
     1  C    0.029025
     2  C   -0.007929
     3  C    0.016217
     4  C    0.039949
     5  C    0.066012
     6  C    0.019192
     7  C    0.309387
     8  O   -0.462433
     9  O   -0.406818
    10  O   -0.120564
    11  C    0.504809
    12  C    0.588639
    13  O   -0.575485
 Electronic spatial extent (au):  <R**2>=           2445.8881
 Charge=              0.0000 electrons
 Dipole moment (field-independent basis, Debye):
    X=              2.7916    Y=              4.0934    Z=             -1.7840  Tot=              5.2661
 Quadrupole moment (field-independent basis, Debye-Ang):
   XX=            -68.4892   YY=            -79.7764   ZZ=            -75.4681
   XY=            -15.4939   XZ=             -5.2752   YZ=             -1.4238
 Traceless Quadrupole moment (field-independent basis, Debye-Ang):
   XX=              6.0887   YY=             -5.1985   ZZ=             -0.8902
   XY=            -15.4939   XZ=             -5.2752   YZ=             -1.4238
 Octapole moment (field-independent basis, Debye-Ang**2):
  XXX=             32.8183  YYY=             44.4435  ZZZ=              2.3200  XYY=             15.5433
  XXY=              9.4644  XXZ=            -11.1610  XZZ=              5.1214  YZZ=            -11.3396
  YYZ=             -3.2669  XYZ=             -7.9169
 Hexadecapole moment (field-independent basis, Debye-Ang**3):
 XXXX=          -1718.5294 YYYY=          -1145.6502 ZZZZ=           -131.9287 XXXY=            -92.0047
 XXXZ=            -39.3418 YYYX=            -73.3779 YYYZ=              6.4385 ZZZX=             -1.7757
 ZZZY=             -0.6145 XXYY=           -528.8416 XXZZ=           -338.2535 YYZZ=           -221.5849
 XXYZ=            -16.0158 YYXZ=             -4.8161 ZZXY=             13.0052
 N-N= 7.706395578708D+02 E-N=-3.055258742128D+03  KE= 6.428952320437D+02
 No NMR shielding tensors so no spin-rotation constants.
 Leave Link  601 at Mon Aug  7 13:09:37 2023, MaxMem=   458752000 cpu:         0.2
 (Enter /opt/apps/apps/binapps/gaussian/g09d01_em64t/g09/l602.exe)
 FitSet:  NAtFit=    21 NAtPot=    21 NAtFrz=     0 MDM=    25 TotChg=   0.00000
 Merz-Kollman atomic radii used.

 **********************************************************************

            Electrostatic Properties Using The SCF Density

 **********************************************************************

       Atomic Center    1 is at  -2.462448  0.496951 -0.006612
       Atomic Center    2 is at   0.003495  1.785551 -0.205045
       Atomic Center    3 is at  -2.383531  1.922152 -0.021235
       Atomic Center    4 is at  -1.156971  2.554225 -0.128275
       Atomic Center    5 is at   3.517492 -0.565472 -0.643690
       Atomic Center    6 is at  -1.262210 -0.270669 -0.044523
       Atomic Center    7 is at  -0.011425  0.359531 -0.131676
       Atomic Center    8 is at  -2.314182 -2.356308 -0.018898
       Atomic Center    9 is at   2.642783  0.999093  0.968909
       Atomic Center   10 is at  -0.234053 -2.440998  0.347728
       Atomic Center   11 is at  -1.276742 -1.723088 -0.054311
       Atomic Center   12 is at   2.453969  0.175161  0.123664
       Atomic Center   13 is at   1.234022 -0.356438 -0.178856
       Atomic Center   14 is at   0.472165 -1.768231  0.335835
       Atomic Center   15 is at  -3.390690  0.039949 -0.018661
       Atomic Center   16 is at   0.881524  2.367203 -0.234164
       Atomic Center   17 is at  -3.212729  2.624283  0.149655
       Atomic Center   18 is at  -1.172731  3.714137 -0.136673
       Atomic Center   19 is at   4.438506 -0.504146 -0.060194
       Atomic Center   20 is at   3.173498 -1.592029 -0.688084
       Atomic Center   21 is at   3.652118 -0.050012 -1.628551
    1014 points will be used for fitting atomic charges
 Fitting point charges to electrostatic potential
 Charges from ESP fit, RMS=   0.00137 RRMS=   0.06621:
 ESP charges:
               1
     1  C   -0.010875
     2  C   -0.282684
     3  C   -0.198766
     4  C   -0.051561
     5  C   -0.576858
     6  C   -0.189889
     7  C    0.346401
     8  O   -0.466021
     9  O   -0.488828
    10  O   -0.498198
    11  C    0.577600
    12  C    0.830909
    13  O   -0.471558
    14  H    0.391278
    15  H    0.125708
    16  H    0.171023
    17  H    0.150574
    18  H    0.130639
    19  H    0.165250
    20  H    0.171832
    21  H    0.174025
 Sum of ESP charges =   0.00000
 ESP charges with hydrogens summed into heavy atoms:
               1
     1  C    0.114833
     2  C   -0.111660
     3  C   -0.048192
     4  C    0.079078
     5  C   -0.065752
     6  C   -0.189889
     7  C    0.346401
     8  O   -0.466021
     9  O   -0.488828
    10  O   -0.106920
    11  C    0.577600
    12  C    0.830909
    13  O   -0.471558
 Charge=   0.00000 Dipole=     2.7635     4.1076    -1.9079 Tot=     5.3056
 -----------------------------------------------------------------

              Electrostatic Properties (Atomic Units)

 -----------------------------------------------------------------
    Center     Electric         -------- Electric Field --------
               Potential          X             Y             Z
 -----------------------------------------------------------------
    1 Atom    -14.703759
    2 Atom    -14.708189
    3 Atom    -14.710408
    4 Atom    -14.702430
    5 Atom    -14.700833
    6 Atom    -14.692019
    7 Atom    -14.625716
    8 Atom    -22.356906
    9 Atom    -22.294126
   10 Atom    -22.286030
   11 Atom    -14.621732
   12 Atom    -14.572650
   13 Atom    -22.215947
   14 Atom     -0.964490
   15 Atom     -1.088414
   16 Atom     -1.083683
   17 Atom     -1.083278
   18 Atom     -1.069205
   19 Atom     -1.077492
   20 Atom     -1.070710
   21 Atom     -1.057294
 -----------------------------------------------------------------
 Leave Link  602 at Mon Aug  7 13:09:37 2023, MaxMem=   458752000 cpu:         0.2
 (Enter /opt/apps/apps/binapps/gaussian/g09d01_em64t/g09/l701.exe)
 Compute integral first derivatives.
 ... and contract with generalized density number  0.
 R6Disp: Adding Grimme-D3 dispersion energy 1st derivatives to the gradient.
 Leave Link  701 at Mon Aug  7 13:09:37 2023, MaxMem=   458752000 cpu:         0.2
 (Enter /opt/apps/apps/binapps/gaussian/g09d01_em64t/g09/l702.exe)
 L702 exits ... SP integral derivatives will be done elsewhere.
 Leave Link  702 at Mon Aug  7 13:09:37 2023, MaxMem=   458752000 cpu:         0.1
 (Enter /opt/apps/apps/binapps/gaussian/g09d01_em64t/g09/l703.exe)
 Compute integral first derivatives, UseDBF=F ICtDFT=           0.
 Integral derivatives from FoFJK, PRISM(SPDF).
 Calling FoFJK, ICntrl=      2127 FMM=F ISym2X=0 I1Cent= 0 IOpClX= 0 NMat=1 NMatS=1 NMatT=0.
 FoFJK:  IHMeth= 1 ICntrl=    2127 DoSepK=F KAlg= 0 I1Cent=   0 FoldK=F
 IRaf=         0 NMat=   1 IRICut=       1 DoRegI=T DoRafI=F ISym2E= 0.
 FoFCou: FMM=F IPFlag=           0 FMFlag=      100000 FMFlg1=         800
         NFxFlg=           0 DoJE=F BraDBF=F KetDBF=F FulRan=T
         wScrn=  0.000000 ICntrl=    2127 IOpCl=  0 I1Cent=           0 NGrid=           0
         NMat0=    1 NMatS0=      1 NMatT0=    0 NMatD0=    1 NMtDS0=    0 NMtDT0=    0
 Symmetry not used in FoFCou.
 Leave Link  703 at Mon Aug  7 13:10:14 2023, MaxMem=   458752000 cpu:        36.3
 (Enter /opt/apps/apps/binapps/gaussian/g09d01_em64t/g09/l716.exe)
 Dipole        = 1.09830129D+00 1.61046364D+00-7.01861539D-01
 ***** Axes restored to original set *****
 -------------------------------------------------------------------
 Center     Atomic                   Forces (Hartrees/Bohr)
 Number     Number              X              Y              Z
 -------------------------------------------------------------------
      1        6          -0.057601236    0.024348450   -0.017533507
      2        6           0.009244642   -0.008400206    0.001452145
      3        6           0.014653689   -0.014629842    0.001076138
      4        6          -0.004881058    0.016695860   -0.012139705
      5        6          -0.002330586    0.010602760   -0.011309132
      6        6          -0.021982611    0.016653827    0.005065737
      7        6          -0.025281968    0.040076529   -0.038988151
      8        8           0.022193390    0.028899550    0.011319581
      9        8           0.000206300    0.009856796   -0.011898844
     10        8          -0.044124603    0.012981610   -0.000336961
     11        6           0.074689518   -0.053864557   -0.010728941
     12        6          -0.016083367   -0.014922544   -0.004934212
     13        8           0.043980883    0.025425787    0.005672972
     14        1          -0.014161289   -0.022363945    0.008522202
     15        1           0.037018173   -0.012716007    0.008564760
     16        1          -0.026623234   -0.004133055    0.004008065
     17        1           0.009406286   -0.008687857    0.015479304
     18        1           0.000713017   -0.033053146    0.026953023
     19        1          -0.001930816    0.002332155    0.002375648
     20        1          -0.003469204    0.002164304    0.015575878
     21        1           0.006364076   -0.017266471    0.001803998
 -------------------------------------------------------------------
 Cartesian Forces:  Max     0.074689518 RMS     0.022373896
 Z-matrix is all fixed cartesians, so copy forces.
 Leave Link  716 at Mon Aug  7 13:10:14 2023, MaxMem=   458752000 cpu:         0.0
 (Enter /opt/apps/apps/binapps/gaussian/g09d01_em64t/g09/l103.exe)

 GradGradGradGradGradGradGradGradGradGradGradGradGradGradGradGradGradGrad
 Berny optimization.
 Search for a local minimum.
 Step number   1 out of a maximum of    2
 All quantities printed in internal units (Hartrees-Bohrs-Radians)
 Second derivative matrix not updated -- first step.
 ITU=  0
     Eigenvalues ---    0.00071   0.00122   0.00188   0.00329   0.00494
     Eigenvalues ---    0.00627   0.00956   0.01181   0.01899   0.02536
     Eigenvalues ---    0.02623   0.03433   0.03714   0.04447   0.05201
     Eigenvalues ---    0.05593   0.06323   0.06521   0.07158   0.07945
     Eigenvalues ---    0.08398   0.09116   0.10392   0.11838   0.12932
     Eigenvalues ---    0.13643   0.13971   0.15070   0.15832   0.19021
     Eigenvalues ---    0.19797   0.21879   0.23992   0.28069   0.30263
     Eigenvalues ---    0.31497   0.37473   0.42369   0.46157   0.46683
     Eigenvalues ---    0.57882   0.69410   0.75979   0.87422   0.94519
     Eigenvalues ---    0.96711   1.05581   1.08708   1.14116   1.23179
     Eigenvalues ---    1.31803   1.41771   1.45459   1.57993   1.62988
     Eigenvalues ---    2.24400   2.45081
 Quadratic step=2.252D+00 exceeds max=3.000D-01 adjusted using Lamda=-2.473D-01.
 Angle between NR and scaled steps=  61.77 degrees.
 Angle between quadratic step and forces=  32.58 degrees.
 Linear search not attempted -- first point.
 TrRot=  0.000000  0.000000  0.000000  0.000000  0.000000  0.000000
 MatCor failed.
 Variable       Old X    -DE/DX   Delta X   Delta X   Delta X     New X
                                 (Linear)    (Quad)   (Total)
    X1       27.14127  -0.05760   0.00000  -0.05179  -0.05179  27.08948
    Y1       25.01491   0.02435   0.00000   0.01421   0.01421  25.02912
    Z1       22.03281  -0.01753   0.00000   0.00053   0.00053  22.03334
    X2       21.99699   0.00924   0.00000  -0.02063  -0.02063  21.97636
    Y2       25.94239  -0.00840   0.00000   0.01080   0.01080  25.95319
    Z2       21.35334   0.00145   0.00000  -0.01862  -0.01862  21.33472
    X3       26.30148   0.01465   0.00000   0.00333   0.00333  26.30480
    Y3       27.00261  -0.01463   0.00000  -0.02105  -0.02105  26.98155
    Z3       20.41406   0.00108   0.00000   0.00117   0.00117  20.41523
    X4       23.74603  -0.00488   0.00000  -0.00246  -0.00246  23.74357
    Y4       27.46125   0.01670   0.00000  -0.00057  -0.00057  27.46068
    Z4       20.09871  -0.01214   0.00000  -0.00039  -0.00039  20.09832
    X5       16.68733  -0.00233   0.00000   0.00015   0.00015  16.68748
    Y5       21.55268   0.01060   0.00000  -0.00348  -0.00348  21.54920
    Z5       25.48364  -0.01131   0.00000  -0.01029  -0.01029  25.47336
    X6       25.32395  -0.02198   0.00000  -0.03106  -0.03106  25.29289
    Y6       23.43378   0.01665   0.00000   0.01430   0.01430  23.44807
    Z6       23.23741   0.00507   0.00000   0.00811   0.00811  23.24552
    X7       22.72767  -0.02528   0.00000  -0.02742  -0.02742  22.70026
    Y7       23.85539   0.04008   0.00000   0.05545   0.05545  23.91085
    Z7       22.90008  -0.03899   0.00000  -0.04770  -0.04770  22.85239
    X8       28.25958   0.02219   0.00000   0.09086   0.09086  28.35045
    Y8       20.94532   0.02890   0.00000   0.04707   0.04707  20.99239
    Z8       25.40018   0.01132   0.00000   0.04352   0.04352  25.44371
    X9       17.71303   0.00021   0.00000   0.00064   0.00064  17.71367
    Y9       22.25602   0.00986   0.00000   0.02436   0.02436  22.28038
    Z9       21.10033  -0.01190   0.00000  -0.01403  -0.01403  21.08630
   X10       24.55525  -0.04412   0.00000  -0.06327  -0.06327  24.49198
   Y10       19.45024   0.01298   0.00000   0.00154   0.00154  19.45177
   Z10       25.40209  -0.00034   0.00000   0.01904   0.01904  25.42113
   X11       26.05676   0.07469   0.00000   0.08797   0.08797  26.14473
   Y11       21.40723  -0.05386   0.00000  -0.10020  -0.10020  21.30703
   Z11       24.93753  -0.01073   0.00000  -0.06884  -0.06884  24.86869
   X12       18.35658  -0.01608   0.00000   0.00572   0.00572  18.36230
   Y12       22.17589  -0.01492   0.00000  -0.03103  -0.03103  22.14486
   Z12       23.26419  -0.00493   0.00000  -0.01113  -0.01113  23.25306
   X13       20.80170   0.04398   0.00000   0.03890   0.03890  20.84060
   Y13       22.33734   0.02543   0.00000   0.06097   0.06097  22.39831
   Z13       24.06794   0.00567   0.00000   0.00224   0.00224  24.07018
   X14       22.93944  -0.01416   0.00000  -0.07278  -0.07278  22.86666
   Y14       20.09059  -0.02236   0.00000  -0.05790  -0.05790  20.03269
   Z14       24.78809   0.00852   0.00000   0.02262   0.02262  24.81071
   X15       29.05359   0.03702   0.00000   0.02029   0.02029  29.07389
   Y15       24.80729  -0.01272   0.00000  -0.03541  -0.03541  24.77189
   Z15       22.38384   0.00856   0.00000   0.01172   0.01172  22.39555
   X16       20.11048  -0.02662   0.00000  -0.06268  -0.06268  20.04780
   Y16       26.39671  -0.00413   0.00000  -0.01469  -0.01469  26.38202
   Z16       20.90734   0.00401   0.00000   0.01675   0.01675  20.92410
   X17       27.49073   0.00941   0.00000   0.04032   0.04032  27.53105
   Y17       28.16665  -0.00869   0.00000  -0.03053  -0.03053  28.13611
   Z17       19.16875   0.01548   0.00000   0.04868   0.04868  19.21743
   X18       23.20870   0.00071   0.00000  -0.00798  -0.00798  23.20072
   Y18       29.11116  -0.03305   0.00000  -0.06445  -0.06445  29.04671
   Z18       18.75904   0.02695   0.00000   0.05646   0.05646  18.81550
   X19       15.04975  -0.00193   0.00000  -0.01094  -0.01094  15.03881
   Y19       20.53453   0.00233   0.00000   0.00512   0.00512  20.53965
   Z19       24.74866   0.00238   0.00000   0.00872   0.00872  24.75738
   X20       17.80876  -0.00347   0.00000  -0.02139  -0.02139  17.78737
   Y20       20.31597   0.00216   0.00000   0.00761   0.00761  20.32358
   Z20       26.66930   0.01558   0.00000   0.04225   0.04225  26.71155
   X21       16.07233   0.00636   0.00000   0.01390   0.01390  16.08623
   Y21       23.37540  -0.01727   0.00000  -0.03773  -0.03773  23.33767
   Z21       26.36500   0.00180   0.00000   0.00965   0.00965  26.37465
         Item               Value     Threshold  Converged?
 Maximum Force            0.074690     0.000450     NO 
 RMS     Force            0.022374     0.000300     NO 
 Maximum Displacement     0.100199     0.001800     NO 
 RMS     Displacement     0.037805     0.001200     NO 
 Predicted change in Energy=-3.358642D-02
 GradGradGradGradGradGradGradGradGradGradGradGradGradGradGradGradGradGrad

 Leave Link  103 at Mon Aug  7 13:10:14 2023, MaxMem=   458752000 cpu:         0.0
 (Enter /opt/apps/apps/binapps/gaussian/g09d01_em64t/g09/l9999.exe)
 1\1\GINC-NODE611\Force\RB3LYP\6-31G(d)\C9H8O4\MBDX6CW3\07-Aug-2023\0\\
 #p b3lyp/6-31g* pop=mk empiricaldispersion=gd3 int(ultrafine) force\\a
 spirin\\0,1\C,14.36254382,13.23731899,11.65926099\C,11.6403079,13.7281
 239,11.29969835\C,13.91814113,14.28916335,10.80265641\C,12.56585836,14
 .5318675,10.6357789\C,8.8305521,11.40518904,13.48536372\C,13.40085506,
 12.40061998,12.29670763\C,12.02696681,12.62372971,12.11820245\O,14.954
 32734,11.0837841,13.44119787\O,9.37332988,11.77737832,11.16581202\O,12
 .99407601,10.29262304,13.44220877\C,13.78864408,11.32821798,13.1963741
 8\C,9.7138834,11.73497796,12.31087923\O,11.00778699,11.82041287,12.736
 20605\H,12.13902831,10.63148141,13.11729431\H,15.37449837,13.12745333,
 11.84501767\H,10.64200759,13.96853566,11.06369019\H,14.54746842,14.905
 14874,10.14366508\H,12.28151679,15.4049623,9.92685795\H,7.9639852,10.8
 6640716,13.09642792\H,9.42399144,10.75074911,14.11278725\H,8.50511134,
 12.36973047,13.95175695\\Version=ES64L-G09RevD.01\State=1-A\HF=-648.65
 81155\RMSD=6.577e-09\RMSF=2.237e-02\Dipole=-1.5187502,1.3725551,-0.319
 3095\Quadrupole=-1.2607859,1.7932446,-0.5324587,6.8638666,-10.7205246,
 -1.5949947\PG=C01 [X(C9H8O4)]\\@


 IT IS A QUALITY OF REVOLUTIONS NOT TO GO BY OLD LINES OR OLD LAWS,
 BUT TO BREAK UP BOTH, AND MAKE NEW ONES.
                                              -- A. LINCOLN (1848)
 Job cpu time:       0 days  0 hours  2 minutes 59.5 seconds.
 File lengths (MBytes):  RWF=     20 Int=      0 D2E=      0 Chk=      3 Scr=      1
 Normal termination of Gaussian 09 at Mon Aug  7 13:10:14 2023.
