 Entering Gaussian System, Link 0=/opt/apps/apps/binapps/gaussian/g09d01_em64t/g09/g09
 Initial command:
 /opt/apps/apps/binapps/gaussian/g09d01_em64t/g09/l1.exe "/net/scratch2/mbdx6cw3/aspirin/300K-meta/dft/qm_input/gau_temp_12/Gau-10749.inp" -scrdir="/net/scratch2/mbdx6cw3/aspirin/300K-meta/dft/qm_input/gau_temp_12/"
 Entering Link 1 = /opt/apps/apps/binapps/gaussian/g09d01_em64t/g09/l1.exe PID=     10751.
  
 Copyright (c) 1988,1990,1992,1993,1995,1998,2003,2009,2013,
            Gaussian, Inc.  All Rights Reserved.
  
 This is part of the Gaussian(R) 09 program.  It is based on
 the Gaussian(R) 03 system (copyright 2003, Gaussian, Inc.),
 the Gaussian(R) 98 system (copyright 1998, Gaussian, Inc.),
 the Gaussian(R) 94 system (copyright 1995, Gaussian, Inc.),
 the Gaussian 92(TM) system (copyright 1992, Gaussian, Inc.),
 the Gaussian 90(TM) system (copyright 1990, Gaussian, Inc.),
 the Gaussian 88(TM) system (copyright 1988, Gaussian, Inc.),
 the Gaussian 86(TM) system (copyright 1986, Carnegie Mellon
 University), and the Gaussian 82(TM) system (copyright 1983,
 Carnegie Mellon University). Gaussian is a federally registered
 trademark of Gaussian, Inc.
  
 This software contains proprietary and confidential information,
 including trade secrets, belonging to Gaussian, Inc.
  
 This software is provided under written license and may be
 used, copied, transmitted, or stored only in accord with that
 written license.
  
 The following legend is applicable only to US Government
 contracts under FAR:
  
                    RESTRICTED RIGHTS LEGEND
  
 Use, reproduction and disclosure by the US Government is
 subject to restrictions as set forth in subparagraphs (a)
 and (c) of the Commercial Computer Software - Restricted
 Rights clause in FAR 52.227-19.
  
 Gaussian, Inc.
 340 Quinnipiac St., Bldg. 40, Wallingford CT 06492
  
  
 ---------------------------------------------------------------
 Warning -- This program may not be used in any manner that
 competes with the business of Gaussian, Inc. or will provide
 assistance to any competitor of Gaussian, Inc.  The licensee
 of this program is prohibited from giving any competitor of
 Gaussian, Inc. access to this program.  By using this program,
 the user acknowledges that Gaussian, Inc. is engaged in the
 business of creating and licensing software in the field of
 computational chemistry and represents and warrants to the
 licensee that it is not a competitor of Gaussian, Inc. and that
 it will not use this program in any manner prohibited above.
 ---------------------------------------------------------------
  

 Cite this work as:
 Gaussian 09, Revision D.01,
 M. J. Frisch, G. W. Trucks, H. B. Schlegel, G. E. Scuseria, 
 M. A. Robb, J. R. Cheeseman, G. Scalmani, V. Barone, B. Mennucci, 
 G. A. Petersson, H. Nakatsuji, M. Caricato, X. Li, H. P. Hratchian, 
 A. F. Izmaylov, J. Bloino, G. Zheng, J. L. Sonnenberg, M. Hada, 
 M. Ehara, K. Toyota, R. Fukuda, J. Hasegawa, M. Ishida, T. Nakajima, 
 Y. Honda, O. Kitao, H. Nakai, T. Vreven, J. A. Montgomery, Jr., 
 J. E. Peralta, F. Ogliaro, M. Bearpark, J. J. Heyd, E. Brothers, 
 K. N. Kudin, V. N. Staroverov, T. Keith, R. Kobayashi, J. Normand, 
 K. Raghavachari, A. Rendell, J. C. Burant, S. S. Iyengar, J. Tomasi, 
 M. Cossi, N. Rega, J. M. Millam, M. Klene, J. E. Knox, J. B. Cross, 
 V. Bakken, C. Adamo, J. Jaramillo, R. Gomperts, R. E. Stratmann, 
 O. Yazyev, A. J. Austin, R. Cammi, C. Pomelli, J. W. Ochterski, 
 R. L. Martin, K. Morokuma, V. G. Zakrzewski, G. A. Voth, 
 P. Salvador, J. J. Dannenberg, S. Dapprich, A. D. Daniels, 
 O. Farkas, J. B. Foresman, J. V. Ortiz, J. Cioslowski, 
 and D. J. Fox, Gaussian, Inc., Wallingford CT, 2013.
 
 ******************************************
 Gaussian 09:  ES64L-G09RevD.01 24-Apr-2013
                 7-Aug-2023 
 ******************************************
 %chk=./gau_temp_12/mol_chk.chk
 %mem=3500MB
 -------------------------------------------------------------------
 #p b3lyp/6-31g* pop=mk empiricaldispersion=gd3 int(ultrafine) force
 -------------------------------------------------------------------
 1/10=7,30=1,38=1/1,3;
 2/12=2,17=6,18=5,40=1/2;
 3/5=1,6=6,7=1,11=2,16=1,25=1,30=1,71=1,74=-5,75=-5,124=31/1,2,3;
 4//1;
 5/5=2,38=5/2;
 6/7=2,8=2,9=2,10=2,15=8,20=1,28=1/1,2;
 7/29=1/1,2,3,16;
 1/10=7,30=1/3;
 99//99;
 Leave Link    1 at Mon Aug  7 13:02:33 2023, MaxMem=   458752000 cpu:         0.0
 (Enter /opt/apps/apps/binapps/gaussian/g09d01_em64t/g09/l101.exe)
 -------
 aspirin
 -------
 Symbolic Z-matrix:
 Charge =  0 Multiplicity = 1
 C                     14.40304   13.12275   12.15065 
 C                     11.79356   14.13492   12.51672 
 C                     14.15097   14.53419   12.09493 
 C                     12.86031   15.04712   12.28955 
 C                     8.74962   10.98745   12.52889 
 C                     13.32339   12.27749   12.40897 
 C                     12.05643   12.74693   12.47816 
 O                     14.62141   10.21194   11.87081 
 O                     9.50846   12.64712   10.91089 
 O                     12.85602   10.01631   13.06758 
 C                     13.66126   10.75574   12.35652 
 C                     9.75804   11.956    11.86765 
 O                     10.92782   11.92051   12.62587 
 H                     12.14182   10.69594   13.14545 
 H                     15.35024   12.71067   11.97908 
 H                     10.79302   14.49783   12.48771 
 H                     14.98485   15.14358   11.86031 
 H                     12.64011   16.15061   12.28352 
 H                     7.7421    11.27296   12.18909 
 H                     9.01154   10.06592   12.03487 
 H                     8.7517    10.94123   13.55192 
 
 NAtoms=     21 NQM=       21 NQMF=       0 NMMI=      0 NMMIF=      0
                NMic=       0 NMicF=      0.
                    Isotopes and Nuclear Properties:
 (Nuclear quadrupole moments (NQMom) in fm**2, nuclear magnetic moments (NMagM)
  in nuclear magnetons)

  Atom         1           2           3           4           5           6           7           8           9          10
 IAtWgt=          12          12          12          12          12          12          12          16          16          16
 AtmWgt=  12.0000000  12.0000000  12.0000000  12.0000000  12.0000000  12.0000000  12.0000000  15.9949146  15.9949146  15.9949146
 NucSpn=           0           0           0           0           0           0           0           0           0           0
 AtZEff=   0.0000000   0.0000000   0.0000000   0.0000000   0.0000000   0.0000000   0.0000000   0.0000000   0.0000000   0.0000000
 NQMom=    0.0000000   0.0000000   0.0000000   0.0000000   0.0000000   0.0000000   0.0000000   0.0000000   0.0000000   0.0000000
 NMagM=    0.0000000   0.0000000   0.0000000   0.0000000   0.0000000   0.0000000   0.0000000   0.0000000   0.0000000   0.0000000
 AtZNuc=   6.0000000   6.0000000   6.0000000   6.0000000   6.0000000   6.0000000   6.0000000   8.0000000   8.0000000   8.0000000

  Atom        11          12          13          14          15          16          17          18          19          20
 IAtWgt=          12          12          16           1           1           1           1           1           1           1
 AtmWgt=  12.0000000  12.0000000  15.9949146   1.0078250   1.0078250   1.0078250   1.0078250   1.0078250   1.0078250   1.0078250
 NucSpn=           0           0           0           1           1           1           1           1           1           1
 AtZEff=   0.0000000   0.0000000   0.0000000   0.0000000   0.0000000   0.0000000   0.0000000   0.0000000   0.0000000   0.0000000
 NQMom=    0.0000000   0.0000000   0.0000000   0.0000000   0.0000000   0.0000000   0.0000000   0.0000000   0.0000000   0.0000000
 NMagM=    0.0000000   0.0000000   0.0000000   2.7928460   2.7928460   2.7928460   2.7928460   2.7928460   2.7928460   2.7928460
 AtZNuc=   6.0000000   6.0000000   8.0000000   1.0000000   1.0000000   1.0000000   1.0000000   1.0000000   1.0000000   1.0000000

  Atom        21
 IAtWgt=           1
 AtmWgt=   1.0078250
 NucSpn=           1
 AtZEff=   0.0000000
 NQMom=    0.0000000
 NMagM=    2.7928460
 AtZNuc=   1.0000000
 Leave Link  101 at Mon Aug  7 13:02:33 2023, MaxMem=   458752000 cpu:         0.1
 (Enter /opt/apps/apps/binapps/gaussian/g09d01_em64t/g09/l103.exe)

 GradGradGradGradGradGradGradGradGradGradGradGradGradGradGradGradGradGrad
 Berny optimization.
 Initialization pass.
 Trust Radius=3.00D-01 FncErr=1.00D-07 GrdErr=1.00D-07
 Number of steps in this run=      2 maximum allowed number of steps=      2.
 GradGradGradGradGradGradGradGradGradGradGradGradGradGradGradGradGradGrad

 Leave Link  103 at Mon Aug  7 13:02:33 2023, MaxMem=   458752000 cpu:         0.0
 (Enter /opt/apps/apps/binapps/gaussian/g09d01_em64t/g09/l202.exe)
                          Input orientation:                          
 ---------------------------------------------------------------------
 Center     Atomic      Atomic             Coordinates (Angstroms)
 Number     Number       Type             X           Y           Z
 ---------------------------------------------------------------------
      1          6           0       14.403037   13.122746   12.150652
      2          6           0       11.793563   14.134924   12.516721
      3          6           0       14.150968   14.534192   12.094934
      4          6           0       12.860307   15.047115   12.289546
      5          6           0        8.749616   10.987446   12.528890
      6          6           0       13.323390   12.277489   12.408966
      7          6           0       12.056426   12.746929   12.478157
      8          8           0       14.621413   10.211935   11.870815
      9          8           0        9.508458   12.647120   10.910891
     10          8           0       12.856016   10.016310   13.067576
     11          6           0       13.661258   10.755738   12.356516
     12          6           0        9.758037   11.956003   11.867650
     13          8           0       10.927815   11.920506   12.625868
     14          1           0       12.141819   10.695937   13.145452
     15          1           0       15.350237   12.710671   11.979076
     16          1           0       10.793022   14.497831   12.487714
     17          1           0       14.984847   15.143579   11.860313
     18          1           0       12.640111   16.150607   12.283516
     19          1           0        7.742097   11.272960   12.189088
     20          1           0        9.011545   10.065922   12.034869
     21          1           0        8.751704   10.941230   13.551917
 ---------------------------------------------------------------------
                    Distance matrix (angstroms):
                    1          2          3          4          5
     1  C    0.000000
     2  C    2.822741   0.000000
     3  C    1.434860   2.427895   0.000000
     4  C    2.470325   1.421844   1.402416   0.000000
     5  C    6.055059   4.378628   6.476290   5.782385   0.000000
     6  C    1.395285   2.408744   2.424090   2.810612   4.753736
     7  C    2.398975   1.413193   2.779978   2.443902   3.746111
     8  O    2.932374   4.878911   4.353556   5.162925   5.959235
     9  O    5.071501   3.164484   5.149358   4.346901   2.438909
    10  O    3.589424   4.288966   4.799395   5.090614   4.253917
    11  C    2.489044   3.864305   3.819025   4.365997   4.920126
    12  C    4.797645   3.051616   5.098682   4.399664   1.546692
    13  O    3.707880   2.380143   4.183534   3.690978   2.371615
    14  H    3.462966   3.513292   4.457855   4.492388   3.460082
    15  H    1.047106   3.868784   2.185611   3.428573   6.843976
    16  H    3.877715   1.064719   3.381035   2.148174   4.062020
    17  H    2.122868   3.410652   1.059129   2.169613   7.523201
    18  H    3.506209   2.198637   2.220596   1.125263   6.469497
    19  H    6.913125   4.971173   7.191531   6.360063   1.100943
    20  H    6.198852   4.952635   6.810486   6.300009   1.077901
    21  H    6.217726   4.530367   6.647121   5.944114   1.024072
                    6          7          8          9         10
     6  C    0.000000
     7  C    1.352908   0.000000
     8  O    2.498195   3.657078   0.000000
     9  O    4.115162   2.993062   5.744030   0.000000
    10  O    2.401069   2.905691   2.141759   4.772692   0.000000
    11  C    1.559689   2.560298   1.205622   4.786742   1.304137
    12  C    3.620514   2.506167   5.166643   1.206366   3.847038
    13  O    2.431720   1.406611   4.139080   2.341728   2.745728
    14  H    2.107090   2.158505   2.829725   3.966732   0.988956
    15  H    2.116733   3.331604   2.605108   5.938976   3.829563
    16  H    3.367326   2.159152   5.779796   2.749837   4.967516
    17  H    3.357966   3.834230   4.945029   6.092992   5.681399
    18  H    3.934927   3.458843   6.274050   4.895485   6.187969
    19  H    5.675232   4.568323   6.967930   2.577234   5.338827
    20  H    4.860349   4.081128   5.614166   2.858817   3.981068
    21  H    4.898188   3.915954   6.149102   3.233845   4.235025
                   11         12         13         14         15
    11  C    0.000000
    12  C    4.112756   0.000000
    13  O    2.983445   1.394466   0.000000
    14  H    1.713094   2.983783   1.800928   0.000000
    15  H    2.610915   5.643991   4.538779   3.964030   0.000000
    16  H    4.716699   2.813639   2.584543   4.087331   4.921469
    17  H    4.609908   6.122111   5.237727   5.432855   2.463058
    18  H    5.491146   5.106271   4.576343   5.544786   4.389831
    19  H    5.944074   2.152646   3.280075   4.539288   7.745638
    20  H    4.711596   2.039024   2.731457   3.380670   6.868540
    21  H    5.056393   2.208897   2.559689   3.423195   7.010377
                   16         17         18         19         20
    16  H    0.000000
    17  H    4.287426   0.000000
    18  H    2.486987   2.586695   0.000000
    19  H    4.449395   8.218711   6.913096   0.000000
    20  H    4.797974   7.841774   7.088845   1.758471   0.000000
    21  H    4.236616   7.705410   6.623153   1.728194   1.770626
                   21
    21  H    0.000000
 Stoichiometry    C9H8O4
 Framework group  C1[X(C9H8O4)]
 Deg. of freedom    57
 Full point group                 C1      NOp   1
 Largest Abelian subgroup         C1      NOp   1
 Largest concise Abelian subgroup C1      NOp   1
                         Standard orientation:                         
 ---------------------------------------------------------------------
 Center     Atomic      Atomic             Coordinates (Angstroms)
 Number     Number       Type             X           Y           Z
 ---------------------------------------------------------------------
      1          6           0        2.410923   -0.348991    0.136223
      2          6           0        0.097464   -1.859131   -0.442783
      3          6           0        2.471973   -1.780384    0.057398
      4          6           0        1.330800   -2.537970   -0.243530
      5          6           0       -3.559221    0.546825   -0.331357
      6          6           0        1.180530    0.264971   -0.100428
      7          6           0        0.049350   -0.457164   -0.271641
      8          8           0        1.979597    2.500652    0.676878
      9          8           0       -2.502911   -1.056821    1.172241
     10          8           0        0.249381    2.424844   -0.583175
     11          6           0        1.175939    1.811755    0.099749
     12          6           0       -2.382963   -0.240556    0.292103
     13          8           0       -1.227873    0.117462   -0.402251
     14          1           0       -0.296440    1.618089   -0.754233
     15          1           0        3.239795    0.238909    0.388763
     16          1           0       -0.799966   -2.429757   -0.494081
     17          1           0        3.411773   -2.215679    0.278869
     18          1           0        1.357057   -3.658464   -0.343631
     19          1           0       -4.489332    0.020413   -0.067046
     20          1           0       -3.519410    1.451942    0.252637
     21          1           0       -3.537796    0.689335   -1.345239
 ---------------------------------------------------------------------
 Rotational constants (GHZ):      1.0255587      0.6974112      0.4499319
 Leave Link  202 at Mon Aug  7 13:02:33 2023, MaxMem=   458752000 cpu:         0.0
 (Enter /opt/apps/apps/binapps/gaussian/g09d01_em64t/g09/l301.exe)
 Standard basis: 6-31G(d) (6D, 7F)
 Ernie: Thresh=  0.10000D-02 Tol=  0.10000D-05 Strict=F.
 There are   211 symmetry adapted cartesian basis functions of A   symmetry.
 There are   211 symmetry adapted basis functions of A   symmetry.
   211 basis functions,   396 primitive gaussians,   211 cartesian basis functions
    47 alpha electrons       47 beta electrons
       nuclear repulsion energy       767.8455188346 Hartrees.
 IExCor=  402 DFT=T Ex+Corr=B3LYP ExCW=0 ScaHFX=  0.200000
 ScaDFX=  0.800000  0.720000  1.000000  0.810000 ScalE2=  1.000000  1.000000
 IRadAn=      5 IRanWt=     -1 IRanGd=            0 ICorTp=0 IEmpDi=131
 NAtoms=   21 NActive=   21 NUniq=   21 SFac= 1.00D+00 NAtFMM=   60 NAOKFM=F Big=F
 Integral buffers will be    131072 words long.
 Raffenetti 2 integral format.
 Two-electron integral symmetry is turned on.
 R6Disp:  Grimme-D3 Dispersion energy=       -0.0172029821 Hartrees.
 Nuclear repulsion after empirical dispersion term =      767.8283158525 Hartrees.
 Leave Link  301 at Mon Aug  7 13:02:33 2023, MaxMem=   458752000 cpu:         0.0
 (Enter /opt/apps/apps/binapps/gaussian/g09d01_em64t/g09/l302.exe)
 NPDir=0 NMtPBC=     1 NCelOv=     1 NCel=       1 NClECP=     1 NCelD=      1
         NCelK=      1 NCelE2=     1 NClLst=     1 CellRange=     0.0.
 One-electron integrals computed using PRISM.
 NBasis=   211 RedAO= T EigKep=  5.26D-04  NBF=   211
 NBsUse=   211 1.00D-06 EigRej= -1.00D+00 NBFU=   211
 Precomputing XC quadrature grid using
 IXCGrd= 4 IRadAn=           5 IRanWt=          -1 IRanGd=           0 AccXCQ= 0.00D+00.
 Generated NRdTot=       0 NPtTot=           0 NUsed=           0 NTot=          32
 NSgBfM=   210   210   210   210   210 MxSgAt=    21 MxSgA2=    21.
 Leave Link  302 at Mon Aug  7 13:02:34 2023, MaxMem=   458752000 cpu:         0.6
 (Enter /opt/apps/apps/binapps/gaussian/g09d01_em64t/g09/l303.exe)
 DipDrv:  MaxL=1.
 Leave Link  303 at Mon Aug  7 13:02:34 2023, MaxMem=   458752000 cpu:         0.0
 (Enter /opt/apps/apps/binapps/gaussian/g09d01_em64t/g09/l401.exe)
 ExpMin= 1.61D-01 ExpMax= 5.48D+03 ExpMxC= 8.25D+02 IAcc=3 IRadAn=         5 AccDes= 0.00D+00
 Harris functional with IExCor=  402 and IRadAn=       5 diagonalized for initial guess.
 HarFok:  IExCor=  402 AccDes= 0.00D+00 IRadAn=         5 IDoV= 1 UseB2=F ITyADJ=14
 ICtDFT=  3500011 ScaDFX=  1.000000  1.000000  1.000000  1.000000
 FoFCou: FMM=F IPFlag=           0 FMFlag=      100000 FMFlg1=           0
         NFxFlg=           0 DoJE=T BraDBF=F KetDBF=T FulRan=T
         wScrn=  0.000000 ICntrl=     500 IOpCl=  0 I1Cent=   200000004 NGrid=           0
         NMat0=    1 NMatS0=      1 NMatT0=    0 NMatD0=    1 NMtDS0=    0 NMtDT0=    0
 Petite list used in FoFCou.
 Harris En= -648.703355172592    
 JPrj=0 DoOrth=F DoCkMO=F.
 Leave Link  401 at Mon Aug  7 13:02:41 2023, MaxMem=   458752000 cpu:         7.4
 (Enter /opt/apps/apps/binapps/gaussian/g09d01_em64t/g09/l502.exe)
 Closed shell SCF:
 Using DIIS extrapolation, IDIIS=  1040.
 Integral symmetry usage will be decided dynamically.
 Keep R1 ints in memory in canonical form, NReq=255049085.
 IVT=      154966 IEndB=      154966 NGot=   458752000 MDV=   208466874
 LenX=   208466874 LenY=   208421912
 Requested convergence on RMS density matrix=1.00D-08 within 128 cycles.
 Requested convergence on MAX density matrix=1.00D-06.
 Requested convergence on             energy=1.00D-06.
 No special actions if energy rises.
 FoFCou: FMM=F IPFlag=           0 FMFlag=           0 FMFlg1=           0
         NFxFlg=           0 DoJE=F BraDBF=F KetDBF=F FulRan=T
         wScrn=  0.000000 ICntrl=     600 IOpCl=  0 I1Cent=           0 NGrid=           0
         NMat0=    1 NMatS0=  22366 NMatT0=    0 NMatD0=    1 NMtDS0=    0 NMtDT0=    0
 Symmetry not used in FoFCou.
 Integral accuracy reduced to 1.0D-05 until final iterations.

 Cycle   1  Pass 0  IDiag  1:
 E= -648.304614965574    
 DIIS: error= 3.38D-02 at cycle   1 NSaved=   1.
 NSaved= 1 IEnMin= 1 EnMin= -648.304614965574     IErMin= 1 ErrMin= 3.38D-02
 ErrMax= 3.38D-02  0.00D+00 EMaxC= 1.00D-01 BMatC= 4.19D-01 BMatP= 4.19D-01
 IDIUse=3 WtCom= 6.62D-01 WtEn= 3.38D-01
 Coeff-Com:  0.100D+01
 Coeff-En:   0.100D+01
 Coeff:      0.100D+01
 Gap=     0.239 Goal=   None    Shift=    0.000
 GapD=    0.239 DampG=1.000 DampE=0.500 DampFc=0.5000 IDamp=-1.
 Damping current iteration by 5.00D-01
 RMSDP=7.46D-03 MaxDP=2.00D-01              OVMax= 2.74D-01

 Cycle   2  Pass 0  IDiag  1:
 E= -648.349112437431     Delta-E=       -0.044497471857 Rises=F Damp=T
 DIIS: error= 1.52D-02 at cycle   2 NSaved=   2.
 NSaved= 2 IEnMin= 2 EnMin= -648.349112437431     IErMin= 2 ErrMin= 1.52D-02
 ErrMax= 1.52D-02  0.00D+00 EMaxC= 1.00D-01 BMatC= 1.08D-01 BMatP= 4.19D-01
 IDIUse=3 WtCom= 8.48D-01 WtEn= 1.52D-01
 Coeff-Com:  0.290D+00 0.710D+00
 Coeff-En:   0.444D+00 0.556D+00
 Coeff:      0.313D+00 0.687D+00
 Gap=     0.219 Goal=   None    Shift=    0.000
 RMSDP=2.61D-03 MaxDP=6.76D-02 DE=-4.45D-02 OVMax= 2.23D-01

 Cycle   3  Pass 0  IDiag  1:
 E= -648.594913037185     Delta-E=       -0.245800599754 Rises=F Damp=F
 DIIS: error= 1.39D-02 at cycle   3 NSaved=   3.
 NSaved= 3 IEnMin= 3 EnMin= -648.594913037185     IErMin= 3 ErrMin= 1.39D-02
 ErrMax= 1.39D-02  0.00D+00 EMaxC= 1.00D-01 BMatC= 7.74D-02 BMatP= 1.08D-01
 IDIUse=3 WtCom= 8.61D-01 WtEn= 1.39D-01
 Coeff-Com:  0.114D+00 0.445D+00 0.441D+00
 Coeff-En:   0.000D+00 0.000D+00 0.100D+01
 Coeff:      0.979D-01 0.383D+00 0.519D+00
 Gap=     0.222 Goal=   None    Shift=    0.000
 RMSDP=1.65D-03 MaxDP=4.38D-02 DE=-2.46D-01 OVMax= 8.47D-02

 Cycle   4  Pass 0  IDiag  1:
 E= -648.651958080058     Delta-E=       -0.057045042873 Rises=F Damp=F
 DIIS: error= 5.92D-03 at cycle   4 NSaved=   4.
 NSaved= 4 IEnMin= 4 EnMin= -648.651958080058     IErMin= 4 ErrMin= 5.92D-03
 ErrMax= 5.92D-03  0.00D+00 EMaxC= 1.00D-01 BMatC= 1.47D-02 BMatP= 7.74D-02
 IDIUse=3 WtCom= 9.41D-01 WtEn= 5.92D-02
 Coeff-Com:  0.295D-01 0.870D-01 0.309D+00 0.575D+00
 Coeff-En:   0.000D+00 0.000D+00 0.175D+00 0.825D+00
 Coeff:      0.278D-01 0.818D-01 0.301D+00 0.589D+00
 Gap=     0.217 Goal=   None    Shift=    0.000
 RMSDP=5.42D-04 MaxDP=1.66D-02 DE=-5.70D-02 OVMax= 2.75D-02

 Cycle   5  Pass 0  IDiag  1:
 E= -648.663040068355     Delta-E=       -0.011081988298 Rises=F Damp=F
 DIIS: error= 1.13D-03 at cycle   5 NSaved=   5.
 NSaved= 5 IEnMin= 5 EnMin= -648.663040068355     IErMin= 5 ErrMin= 1.13D-03
 ErrMax= 1.13D-03  0.00D+00 EMaxC= 1.00D-01 BMatC= 7.62D-04 BMatP= 1.47D-02
 IDIUse=3 WtCom= 9.89D-01 WtEn= 1.13D-02
 Coeff-Com:  0.567D-02 0.315D-02 0.118D+00 0.324D+00 0.550D+00
 Coeff-En:   0.000D+00 0.000D+00 0.000D+00 0.000D+00 0.100D+01
 Coeff:      0.561D-02 0.311D-02 0.116D+00 0.320D+00 0.555D+00
 Gap=     0.215 Goal=   None    Shift=    0.000
 RMSDP=1.42D-04 MaxDP=4.03D-03 DE=-1.11D-02 OVMax= 5.33D-03

 Cycle   6  Pass 0  IDiag  1:
 E= -648.663608764409     Delta-E=       -0.000568696053 Rises=F Damp=F
 DIIS: error= 3.34D-04 at cycle   6 NSaved=   6.
 NSaved= 6 IEnMin= 6 EnMin= -648.663608764409     IErMin= 6 ErrMin= 3.34D-04
 ErrMax= 3.34D-04  0.00D+00 EMaxC= 1.00D-01 BMatC= 6.32D-05 BMatP= 7.62D-04
 IDIUse=3 WtCom= 9.97D-01 WtEn= 3.34D-03
 Coeff-Com:  0.118D-02-0.439D-02 0.410D-01 0.125D+00 0.304D+00 0.534D+00
 Coeff-En:   0.000D+00 0.000D+00 0.000D+00 0.000D+00 0.000D+00 0.100D+01
 Coeff:      0.118D-02-0.438D-02 0.409D-01 0.124D+00 0.303D+00 0.535D+00
 Gap=     0.215 Goal=   None    Shift=    0.000
 RMSDP=4.40D-05 MaxDP=1.51D-03 DE=-5.69D-04 OVMax= 1.70D-03

 Cycle   7  Pass 0  IDiag  1:
 E= -648.663653749030     Delta-E=       -0.000044984621 Rises=F Damp=F
 DIIS: error= 1.49D-04 at cycle   7 NSaved=   7.
 NSaved= 7 IEnMin= 7 EnMin= -648.663653749030     IErMin= 7 ErrMin= 1.49D-04
 ErrMax= 1.49D-04  0.00D+00 EMaxC= 1.00D-01 BMatC= 8.34D-06 BMatP= 6.32D-05
 IDIUse=3 WtCom= 9.99D-01 WtEn= 1.49D-03
 Coeff-Com:  0.359D-03-0.292D-02 0.147D-01 0.455D-01 0.137D+00 0.329D+00
 Coeff-Com:  0.477D+00
 Coeff-En:   0.000D+00 0.000D+00 0.000D+00 0.000D+00 0.000D+00 0.494D-01
 Coeff-En:   0.951D+00
 Coeff:      0.359D-03-0.291D-02 0.147D-01 0.454D-01 0.137D+00 0.328D+00
 Coeff:      0.477D+00
 Gap=     0.215 Goal=   None    Shift=    0.000
 RMSDP=1.47D-05 MaxDP=4.67D-04 DE=-4.50D-05 OVMax= 7.82D-04

 Cycle   8  Pass 0  IDiag  1:
 E= -648.663660061811     Delta-E=       -0.000006312782 Rises=F Damp=F
 DIIS: error= 5.09D-05 at cycle   8 NSaved=   8.
 NSaved= 8 IEnMin= 8 EnMin= -648.663660061811     IErMin= 8 ErrMin= 5.09D-05
 ErrMax= 5.09D-05  0.00D+00 EMaxC= 1.00D-01 BMatC= 1.03D-06 BMatP= 8.34D-06
 IDIUse=1 WtCom= 1.00D+00 WtEn= 0.00D+00
 Coeff-Com:  0.111D-03-0.134D-02 0.375D-02 0.111D-01 0.465D-01 0.133D+00
 Coeff-Com:  0.295D+00 0.511D+00
 Coeff:      0.111D-03-0.134D-02 0.375D-02 0.111D-01 0.465D-01 0.133D+00
 Coeff:      0.295D+00 0.511D+00
 Gap=     0.215 Goal=   None    Shift=    0.000
 RMSDP=4.61D-06 MaxDP=1.69D-04 DE=-6.31D-06 OVMax= 2.45D-04

 Initial convergence to 1.0D-05 achieved.  Increase integral accuracy.
 Cycle   9  Pass 1  IDiag  1:
 E= -648.663655048294     Delta-E=        0.000005013518 Rises=F Damp=F
 DIIS: error= 1.39D-05 at cycle   1 NSaved=   1.
 NSaved= 1 IEnMin= 1 EnMin= -648.663655048294     IErMin= 1 ErrMin= 1.39D-05
 ErrMax= 1.39D-05  0.00D+00 EMaxC= 1.00D-01 BMatC= 5.52D-08 BMatP= 5.52D-08
 IDIUse=1 WtCom= 1.00D+00 WtEn= 0.00D+00
 Coeff-Com:  0.100D+01
 Coeff:      0.100D+01
 Gap=     0.215 Goal=   None    Shift=    0.000
 RMSDP=4.61D-06 MaxDP=1.69D-04 DE= 5.01D-06 OVMax= 1.46D-04

 Cycle  10  Pass 1  IDiag  1:
 E= -648.663654963394     Delta-E=        0.000000084900 Rises=F Damp=F
 DIIS: error= 2.87D-05 at cycle   2 NSaved=   2.
 NSaved= 2 IEnMin= 1 EnMin= -648.663655048294     IErMin= 1 ErrMin= 1.39D-05
 ErrMax= 2.87D-05  0.00D+00 EMaxC= 1.00D-01 BMatC= 1.70D-07 BMatP= 5.52D-08
 IDIUse=1 WtCom= 1.00D+00 WtEn= 0.00D+00
 Coeff-Com:  0.645D+00 0.355D+00
 Coeff:      0.645D+00 0.355D+00
 Gap=     0.215 Goal=   None    Shift=    0.000
 RMSDP=1.86D-06 MaxDP=7.72D-05 DE= 8.49D-08 OVMax= 1.18D-04

 Cycle  11  Pass 1  IDiag  1:
 E= -648.663655096929     Delta-E=       -0.000000133535 Rises=F Damp=F
 DIIS: error= 4.74D-06 at cycle   3 NSaved=   3.
 NSaved= 3 IEnMin= 3 EnMin= -648.663655096929     IErMin= 3 ErrMin= 4.74D-06
 ErrMax= 4.74D-06  0.00D+00 EMaxC= 1.00D-01 BMatC= 4.89D-09 BMatP= 5.52D-08
 IDIUse=1 WtCom= 1.00D+00 WtEn= 0.00D+00
 Coeff-Com:  0.241D+00 0.188D+00 0.572D+00
 Coeff:      0.241D+00 0.188D+00 0.572D+00
 Gap=     0.215 Goal=   None    Shift=    0.000
 RMSDP=4.28D-07 MaxDP=1.42D-05 DE=-1.34D-07 OVMax= 1.94D-05

 Cycle  12  Pass 1  IDiag  1:
 E= -648.663655100161     Delta-E=       -0.000000003233 Rises=F Damp=F
 DIIS: error= 1.14D-06 at cycle   4 NSaved=   4.
 NSaved= 4 IEnMin= 4 EnMin= -648.663655100161     IErMin= 4 ErrMin= 1.14D-06
 ErrMax= 1.14D-06  0.00D+00 EMaxC= 1.00D-01 BMatC= 9.17D-10 BMatP= 4.89D-09
 IDIUse=1 WtCom= 1.00D+00 WtEn= 0.00D+00
 Coeff-Com:  0.251D-01 0.503D-01 0.341D+00 0.583D+00
 Coeff:      0.251D-01 0.503D-01 0.341D+00 0.583D+00
 Gap=     0.215 Goal=   None    Shift=    0.000
 RMSDP=1.69D-07 MaxDP=6.19D-06 DE=-3.23D-09 OVMax= 9.49D-06

 Cycle  13  Pass 1  IDiag  1:
 E= -648.663655100854     Delta-E=       -0.000000000693 Rises=F Damp=F
 DIIS: error= 5.42D-07 at cycle   5 NSaved=   5.
 NSaved= 5 IEnMin= 5 EnMin= -648.663655100854     IErMin= 5 ErrMin= 5.42D-07
 ErrMax= 5.42D-07  0.00D+00 EMaxC= 1.00D-01 BMatC= 1.30D-10 BMatP= 9.17D-10
 IDIUse=1 WtCom= 1.00D+00 WtEn= 0.00D+00
 Coeff-Com: -0.779D-02 0.133D-01 0.148D+00 0.356D+00 0.490D+00
 Coeff:     -0.779D-02 0.133D-01 0.148D+00 0.356D+00 0.490D+00
 Gap=     0.215 Goal=   None    Shift=    0.000
 RMSDP=6.39D-08 MaxDP=1.54D-06 DE=-6.93D-10 OVMax= 4.26D-06

 Cycle  14  Pass 1  IDiag  1:
 E= -648.663655100945     Delta-E=       -0.000000000091 Rises=F Damp=F
 DIIS: error= 1.94D-07 at cycle   6 NSaved=   6.
 NSaved= 6 IEnMin= 6 EnMin= -648.663655100945     IErMin= 6 ErrMin= 1.94D-07
 ErrMax= 1.94D-07  0.00D+00 EMaxC= 1.00D-01 BMatC= 1.48D-11 BMatP= 1.30D-10
 IDIUse=1 WtCom= 1.00D+00 WtEn= 0.00D+00
 Coeff-Com: -0.721D-02 0.336D-02 0.531D-01 0.154D+00 0.298D+00 0.498D+00
 Coeff:     -0.721D-02 0.336D-02 0.531D-01 0.154D+00 0.298D+00 0.498D+00
 Gap=     0.215 Goal=   None    Shift=    0.000
 RMSDP=2.00D-08 MaxDP=5.74D-07 DE=-9.09D-11 OVMax= 1.41D-06

 Cycle  15  Pass 1  IDiag  1:
 E= -648.663655100977     Delta-E=       -0.000000000031 Rises=F Damp=F
 DIIS: error= 6.72D-08 at cycle   7 NSaved=   7.
 NSaved= 7 IEnMin= 7 EnMin= -648.663655100977     IErMin= 7 ErrMin= 6.72D-08
 ErrMax= 6.72D-08  0.00D+00 EMaxC= 1.00D-01 BMatC= 1.67D-12 BMatP= 1.48D-11
 IDIUse=1 WtCom= 1.00D+00 WtEn= 0.00D+00
 Coeff-Com: -0.376D-02 0.716D-03 0.163D-01 0.572D-01 0.130D+00 0.311D+00
 Coeff-Com:  0.489D+00
 Coeff:     -0.376D-02 0.716D-03 0.163D-01 0.572D-01 0.130D+00 0.311D+00
 Coeff:      0.489D+00
 Gap=     0.215 Goal=   None    Shift=    0.000
 RMSDP=6.06D-09 MaxDP=2.14D-07 DE=-3.14D-11 OVMax= 2.67D-07

 SCF Done:  E(RB3LYP) =  -648.663655101     A.U. after   15 cycles
            NFock= 15  Conv=0.61D-08     -V/T= 2.0089
 KE= 6.429200546579D+02 PE=-3.049607974100D+03 EE= 9.901959484889D+02
 Leave Link  502 at Mon Aug  7 13:04:33 2023, MaxMem=   458752000 cpu:       112.2
 (Enter /opt/apps/apps/binapps/gaussian/g09d01_em64t/g09/l601.exe)
 Copying SCF densities to generalized density rwf, IOpCl= 0 IROHF=0.

 **********************************************************************

            Population analysis using the SCF density.

 **********************************************************************

 Orbital symmetries:
       Occupied  (A) (A) (A) (A) (A) (A) (A) (A) (A) (A) (A) (A)
                 (A) (A) (A) (A) (A) (A) (A) (A) (A) (A) (A) (A)
                 (A) (A) (A) (A) (A) (A) (A) (A) (A) (A) (A) (A)
                 (A) (A) (A) (A) (A) (A) (A) (A) (A) (A) (A)
       Virtual   (A) (A) (A) (A) (A) (A) (A) (A) (A) (A) (A) (A)
                 (A) (A) (A) (A) (A) (A) (A) (A) (A) (A) (A) (A)
                 (A) (A) (A) (A) (A) (A) (A) (A) (A) (A) (A) (A)
                 (A) (A) (A) (A) (A) (A) (A) (A) (A) (A) (A) (A)
                 (A) (A) (A) (A) (A) (A) (A) (A) (A) (A) (A) (A)
                 (A) (A) (A) (A) (A) (A) (A) (A) (A) (A) (A) (A)
                 (A) (A) (A) (A) (A) (A) (A) (A) (A) (A) (A) (A)
                 (A) (A) (A) (A) (A) (A) (A) (A) (A) (A) (A) (A)
                 (A) (A) (A) (A) (A) (A) (A) (A) (A) (A) (A) (A)
                 (A) (A) (A) (A) (A) (A) (A) (A) (A) (A) (A) (A)
                 (A) (A) (A) (A) (A) (A) (A) (A) (A) (A) (A) (A)
                 (A) (A) (A) (A) (A) (A) (A) (A) (A) (A) (A) (A)
                 (A) (A) (A) (A) (A) (A) (A) (A) (A) (A) (A) (A)
                 (A) (A) (A) (A) (A) (A) (A) (A)
 The electronic state is 1-A.
 Alpha  occ. eigenvalues --  -19.23796 -19.19072 -19.17543 -19.12619 -10.35880
 Alpha  occ. eigenvalues --  -10.31860 -10.28574 -10.22915 -10.22800 -10.22011
 Alpha  occ. eigenvalues --  -10.21874 -10.21622 -10.21295  -1.13460  -1.11842
 Alpha  occ. eigenvalues --   -1.05966  -1.01241  -0.88389  -0.79867  -0.78228
 Alpha  occ. eigenvalues --   -0.75535  -0.67517  -0.65144  -0.60966  -0.59664
 Alpha  occ. eigenvalues --   -0.55154  -0.51917  -0.51295  -0.50466  -0.49314
 Alpha  occ. eigenvalues --   -0.47756  -0.46439  -0.45276  -0.44016  -0.43510
 Alpha  occ. eigenvalues --   -0.42088  -0.41663  -0.40646  -0.39314  -0.38177
 Alpha  occ. eigenvalues --   -0.36650  -0.34454  -0.30872  -0.30572  -0.28182
 Alpha  occ. eigenvalues --   -0.26850  -0.26477
 Alpha virt. eigenvalues --   -0.04942  -0.03980  -0.01273   0.04126   0.06185
 Alpha virt. eigenvalues --    0.08708   0.11349   0.12829   0.13883   0.14399
 Alpha virt. eigenvalues --    0.15386   0.16160   0.16617   0.17560   0.19931
 Alpha virt. eigenvalues --    0.22268   0.24906   0.27416   0.28886   0.29593
 Alpha virt. eigenvalues --    0.30697   0.32698   0.37489   0.38577   0.45561
 Alpha virt. eigenvalues --    0.48361   0.49019   0.50749   0.51373   0.52901
 Alpha virt. eigenvalues --    0.52931   0.53991   0.54575   0.55897   0.57094
 Alpha virt. eigenvalues --    0.58049   0.59224   0.59711   0.60582   0.61768
 Alpha virt. eigenvalues --    0.62921   0.64332   0.65918   0.67152   0.68072
 Alpha virt. eigenvalues --    0.70761   0.74358   0.75266   0.78276   0.79108
 Alpha virt. eigenvalues --    0.82618   0.83003   0.83611   0.84782   0.85775
 Alpha virt. eigenvalues --    0.87739   0.88685   0.89118   0.90396   0.92965
 Alpha virt. eigenvalues --    0.94026   0.95886   0.96761   0.98975   0.99752
 Alpha virt. eigenvalues --    1.01141   1.01756   1.04265   1.06972   1.08030
 Alpha virt. eigenvalues --    1.09567   1.10291   1.12734   1.14182   1.18521
 Alpha virt. eigenvalues --    1.19593   1.21970   1.26122   1.28833   1.33348
 Alpha virt. eigenvalues --    1.34554   1.37427   1.39897   1.41048   1.43675
 Alpha virt. eigenvalues --    1.44823   1.46061   1.48209   1.51657   1.53177
 Alpha virt. eigenvalues --    1.57846   1.59363   1.65105   1.67447   1.67648
 Alpha virt. eigenvalues --    1.71814   1.73692   1.76232   1.77204   1.78752
 Alpha virt. eigenvalues --    1.79322   1.80502   1.82934   1.83761   1.85827
 Alpha virt. eigenvalues --    1.87058   1.90008   1.90916   1.91887   1.94216
 Alpha virt. eigenvalues --    1.96004   1.97182   2.01371   2.03730   2.05461
 Alpha virt. eigenvalues --    2.08290   2.10471   2.13237   2.16741   2.18535
 Alpha virt. eigenvalues --    2.21819   2.24424   2.25330   2.25778   2.29748
 Alpha virt. eigenvalues --    2.33965   2.35195   2.36626   2.42227   2.45913
 Alpha virt. eigenvalues --    2.50773   2.52280   2.56168   2.59670   2.60536
 Alpha virt. eigenvalues --    2.62284   2.65118   2.67571   2.69052   2.71332
 Alpha virt. eigenvalues --    2.75515   2.78608   2.82159   2.87594   2.93314
 Alpha virt. eigenvalues --    2.96870   3.01938   3.04746   3.09305   3.24551
 Alpha virt. eigenvalues --    3.38382   3.92537   4.01427   4.04275   4.06023
 Alpha virt. eigenvalues --    4.07811   4.12180   4.22506   4.26882   4.33012
 Alpha virt. eigenvalues --    4.39522   4.44051   4.54307   4.72953
          Condensed to atoms (all electrons):
               1          2          3          4          5          6
     1  C    4.978261  -0.051703   0.474630  -0.017548   0.000003   0.490152
     2  C   -0.051703   5.015139  -0.022035   0.495573   0.000107  -0.043034
     3  C    0.474630  -0.022035   4.921316   0.524801   0.000000  -0.016753
     4  C   -0.017548   0.495573   0.524801   4.885798  -0.000002  -0.038452
     5  C    0.000003   0.000107   0.000000  -0.000002   5.222262  -0.000244
     6  C    0.490152  -0.043034  -0.016753  -0.038452  -0.000244   5.156913
     7  C   -0.030062   0.497047  -0.043053  -0.014412   0.004240   0.494493
     8  O    0.004203  -0.000059   0.000443  -0.000002   0.000000  -0.080087
     9  O   -0.000004  -0.000316   0.000007  -0.000226  -0.072056   0.000155
    10  O    0.005601  -0.000301  -0.000121   0.000017  -0.000084  -0.077226
    11  C   -0.032999   0.005134   0.005907  -0.000173  -0.000052   0.230428
    12  C    0.000022  -0.002840   0.000031  -0.000024   0.369992   0.001006
    13  O    0.003576  -0.051609  -0.000027   0.004065  -0.095809  -0.060200
    14  H   -0.000437   0.000974  -0.000039  -0.000028   0.000142   0.005914
    15  H    0.364730   0.000054  -0.039020   0.004323   0.000000  -0.048235
    16  H    0.000696   0.355033   0.003957  -0.036949  -0.000083   0.005260
    17  H   -0.040751   0.004653   0.362821  -0.042672   0.000000   0.004577
    18  H    0.003153  -0.035635  -0.035821   0.357031   0.000000   0.000590
    19  H    0.000000   0.000009   0.000000   0.000000   0.366613   0.000001
    20  H    0.000000  -0.000003   0.000000   0.000000   0.357750   0.000040
    21  H    0.000000   0.000004   0.000000   0.000000   0.365930  -0.000008
               7          8          9         10         11         12
     1  C   -0.030062   0.004203  -0.000004   0.005601  -0.032999   0.000022
     2  C    0.497047  -0.000059  -0.000316  -0.000301   0.005134  -0.002840
     3  C   -0.043053   0.000443   0.000007  -0.000121   0.005907   0.000031
     4  C   -0.014412  -0.000002  -0.000226   0.000017  -0.000173  -0.000024
     5  C    0.004240   0.000000  -0.072056  -0.000084  -0.000052   0.369992
     6  C    0.494493  -0.080087   0.000155  -0.077226   0.230428   0.001006
     7  C    4.680906   0.001022   0.004423  -0.004845  -0.032353   0.000727
     8  O    0.001022   8.004551   0.000000  -0.099155   0.605423   0.000000
     9  O    0.004423   0.000000   7.958454  -0.000003  -0.000015   0.574558
    10  O   -0.004845  -0.099155  -0.000003   8.249952   0.264630   0.000214
    11  C   -0.032353   0.605423  -0.000015   0.264630   4.472423   0.000010
    12  C    0.000727   0.000000   0.574558   0.000214   0.000010   4.351839
    13  O    0.156455  -0.000010  -0.060953  -0.015686  -0.000420   0.183368
    14  H   -0.007730   0.006048   0.000195   0.209025  -0.034222  -0.000230
    15  H    0.005625   0.013139   0.000000   0.000581  -0.006136  -0.000001
    16  H   -0.034825   0.000000   0.004763   0.000001  -0.000069   0.004350
    17  H    0.000871  -0.000001   0.000000   0.000000  -0.000127   0.000000
    18  H    0.003258   0.000000  -0.000003   0.000000   0.000005  -0.000012
    19  H   -0.000062   0.000000   0.001847   0.000000   0.000001  -0.026472
    20  H   -0.000284   0.000000   0.000599   0.000083   0.000001  -0.025489
    21  H   -0.000130   0.000000   0.002208   0.000006   0.000001  -0.017911
              13         14         15         16         17         18
     1  C    0.003576  -0.000437   0.364730   0.000696  -0.040751   0.003153
     2  C   -0.051609   0.000974   0.000054   0.355033   0.004653  -0.035635
     3  C   -0.000027  -0.000039  -0.039020   0.003957   0.362821  -0.035821
     4  C    0.004065  -0.000028   0.004323  -0.036949  -0.042672   0.357031
     5  C   -0.095809   0.000142   0.000000  -0.000083   0.000000   0.000000
     6  C   -0.060200   0.005914  -0.048235   0.005260   0.004577   0.000590
     7  C    0.156455  -0.007730   0.005625  -0.034825   0.000871   0.003258
     8  O   -0.000010   0.006048   0.013139   0.000000  -0.000001   0.000000
     9  O   -0.060953   0.000195   0.000000   0.004763   0.000000  -0.000003
    10  O   -0.015686   0.209025   0.000581   0.000001   0.000000   0.000000
    11  C   -0.000420  -0.034222  -0.006136  -0.000069  -0.000127   0.000005
    12  C    0.183368  -0.000230  -0.000001   0.004350   0.000000  -0.000012
    13  O    8.466076   0.042530  -0.000040  -0.008193   0.000002  -0.000049
    14  H    0.042530   0.344978  -0.000132  -0.000003   0.000000   0.000001
    15  H   -0.000040  -0.000132   0.530867   0.000012  -0.004471  -0.000114
    16  H   -0.008193  -0.000003   0.000012   0.547568  -0.000160  -0.004288
    17  H    0.000002   0.000000  -0.004471  -0.000160   0.572124  -0.004111
    18  H   -0.000049   0.000001  -0.000114  -0.004288  -0.004111   0.561618
    19  H    0.003059   0.000007   0.000000   0.000011   0.000000   0.000000
    20  H    0.001504   0.000153   0.000000   0.000006   0.000000   0.000000
    21  H    0.004040   0.000074   0.000000  -0.000029   0.000000   0.000000
              19         20         21
     1  C    0.000000   0.000000   0.000000
     2  C    0.000009  -0.000003   0.000004
     3  C    0.000000   0.000000   0.000000
     4  C    0.000000   0.000000   0.000000
     5  C    0.366613   0.357750   0.365930
     6  C    0.000001   0.000040  -0.000008
     7  C   -0.000062  -0.000284  -0.000130
     8  O    0.000000   0.000000   0.000000
     9  O    0.001847   0.000599   0.002208
    10  O    0.000000   0.000083   0.000006
    11  C    0.000001   0.000001   0.000001
    12  C   -0.026472  -0.025489  -0.017911
    13  O    0.003059   0.001504   0.004040
    14  H    0.000007   0.000153   0.000074
    15  H    0.000000   0.000000   0.000000
    16  H    0.000011   0.000006  -0.000029
    17  H    0.000000   0.000000   0.000000
    18  H    0.000000   0.000000   0.000000
    19  H    0.512273  -0.020212  -0.027376
    20  H   -0.020212   0.503650  -0.018358
    21  H   -0.027376  -0.018358   0.493318
 Mulliken charges:
               1
     1  C   -0.151523
     2  C   -0.166193
     3  C   -0.137045
     4  C   -0.121121
     5  C   -0.518709
     6  C   -0.025291
     7  C    0.318689
     8  O   -0.455516
     9  O   -0.413632
    10  O   -0.532689
    11  C    0.522601
    12  C    0.586862
    13  O   -0.571682
    14  H    0.432780
    15  H    0.178816
    16  H    0.162941
    17  H    0.147246
    18  H    0.154377
    19  H    0.190301
    20  H    0.200559
    21  H    0.198231
 Sum of Mulliken charges =   0.00000
 Mulliken charges with hydrogens summed into heavy atoms:
               1
     1  C    0.027293
     2  C   -0.003252
     3  C    0.010200
     4  C    0.033256
     5  C    0.070382
     6  C   -0.025291
     7  C    0.318689
     8  O   -0.455516
     9  O   -0.413632
    10  O   -0.099909
    11  C    0.522601
    12  C    0.586862
    13  O   -0.571682
 Electronic spatial extent (au):  <R**2>=           2437.1309
 Charge=              0.0000 electrons
 Dipole moment (field-independent basis, Debye):
    X=             -1.9654    Y=             -3.5668    Z=             -2.1962  Tot=              4.6269
 Quadrupole moment (field-independent basis, Debye-Ang):
   XX=            -65.2354   YY=            -80.4832   ZZ=            -77.0580
   XY=            -12.8595   XZ=              3.1084   YZ=              0.8998
 Traceless Quadrupole moment (field-independent basis, Debye-Ang):
   XX=              9.0235   YY=             -6.2243   ZZ=             -2.7992
   XY=            -12.8595   XZ=              3.1084   YZ=              0.8998
 Octapole moment (field-independent basis, Debye-Ang**2):
  XXX=            -26.0503  YYY=            -43.0629  ZZZ=             -0.3530  XYY=            -14.2041
  XXY=             -2.7225  XXZ=            -12.2289  XZZ=             -5.3006  YZZ=             10.1976
  YYZ=             -7.2471  XYZ=            -13.2532
 Hexadecapole moment (field-independent basis, Debye-Ang**3):
 XXXX=          -1612.3870 YYYY=          -1167.6134 ZZZZ=           -174.7245 XXXY=            -56.6623
 XXXZ=             36.3339 YYYX=            -54.6161 YYYZ=             -1.1330 ZZZX=              7.2886
 ZZZY=             -6.2315 XXYY=           -509.3399 XXZZ=           -345.1308 YYZZ=           -234.6889
 XXYZ=             -5.1396 YYXZ=             -9.7038 ZZXY=              0.0113
 N-N= 7.678283158525D+02 E-N=-3.049607975358D+03  KE= 6.429200546579D+02
 No NMR shielding tensors so no spin-rotation constants.
 Leave Link  601 at Mon Aug  7 13:04:34 2023, MaxMem=   458752000 cpu:         0.2
 (Enter /opt/apps/apps/binapps/gaussian/g09d01_em64t/g09/l602.exe)
 FitSet:  NAtFit=    21 NAtPot=    21 NAtFrz=     0 MDM=    25 TotChg=   0.00000
 Merz-Kollman atomic radii used.

 **********************************************************************

            Electrostatic Properties Using The SCF Density

 **********************************************************************

       Atomic Center    1 is at   2.410923 -0.348991  0.136223
       Atomic Center    2 is at   0.097464 -1.859131 -0.442783
       Atomic Center    3 is at   2.471973 -1.780384  0.057398
       Atomic Center    4 is at   1.330800 -2.537970 -0.243530
       Atomic Center    5 is at  -3.559221  0.546825 -0.331357
       Atomic Center    6 is at   1.180530  0.264971 -0.100428
       Atomic Center    7 is at   0.049350 -0.457164 -0.271641
       Atomic Center    8 is at   1.979597  2.500652  0.676878
       Atomic Center    9 is at  -2.502911 -1.056821  1.172241
       Atomic Center   10 is at   0.249381  2.424844 -0.583175
       Atomic Center   11 is at   1.175939  1.811755  0.099749
       Atomic Center   12 is at  -2.382963 -0.240556  0.292103
       Atomic Center   13 is at  -1.227873  0.117462 -0.402251
       Atomic Center   14 is at  -0.296440  1.618089 -0.754233
       Atomic Center   15 is at   3.239795  0.238909  0.388763
       Atomic Center   16 is at  -0.799966 -2.429757 -0.494081
       Atomic Center   17 is at   3.411773 -2.215679  0.278869
       Atomic Center   18 is at   1.357057 -3.658464 -0.343631
       Atomic Center   19 is at  -4.489332  0.020413 -0.067046
       Atomic Center   20 is at  -3.519410  1.451942  0.252637
       Atomic Center   21 is at  -3.537796  0.689335 -1.345239
    1084 points will be used for fitting atomic charges
 Fitting point charges to electrostatic potential
 Charges from ESP fit, RMS=   0.00129 RRMS=   0.07075:
 ESP charges:
               1
     1  C   -0.134149
     2  C   -0.163261
     3  C   -0.090034
     4  C   -0.143393
     5  C   -0.494946
     6  C   -0.147208
     7  C    0.252274
     8  O   -0.483104
     9  O   -0.467051
    10  O   -0.465000
    11  C    0.634021
    12  C    0.739725
    13  O   -0.419807
    14  H    0.335730
    15  H    0.154828
    16  H    0.157023
    17  H    0.127735
    18  H    0.145099
    19  H    0.140587
    20  H    0.146796
    21  H    0.174137
 Sum of ESP charges =   0.00000
 ESP charges with hydrogens summed into heavy atoms:
               1
     1  C    0.020678
     2  C   -0.006238
     3  C    0.037701
     4  C    0.001706
     5  C   -0.033427
     6  C   -0.147208
     7  C    0.252274
     8  O   -0.483104
     9  O   -0.467051
    10  O   -0.129270
    11  C    0.634021
    12  C    0.739725
    13  O   -0.419807
 Charge=   0.00000 Dipole=    -1.9795    -3.6031    -2.1737 Tot=     4.6503
 -----------------------------------------------------------------

              Electrostatic Properties (Atomic Units)

 -----------------------------------------------------------------
    Center     Electric         -------- Electric Field --------
               Potential          X             Y             Z
 -----------------------------------------------------------------
    1 Atom    -14.710133
    2 Atom    -14.707918
    3 Atom    -14.711355
    4 Atom    -14.698537
    5 Atom    -14.712824
    6 Atom    -14.700127
    7 Atom    -14.640905
    8 Atom    -22.341095
    9 Atom    -22.292893
   10 Atom    -22.274404
   11 Atom    -14.609112
   12 Atom    -14.567496
   13 Atom    -22.223305
   14 Atom     -0.949306
   15 Atom     -1.085286
   16 Atom     -1.078238
   17 Atom     -1.090578
   18 Atom     -1.074579
   19 Atom     -1.083563
   20 Atom     -1.072596
   21 Atom     -1.078784
 -----------------------------------------------------------------
 Leave Link  602 at Mon Aug  7 13:04:34 2023, MaxMem=   458752000 cpu:         0.2
 (Enter /opt/apps/apps/binapps/gaussian/g09d01_em64t/g09/l701.exe)
 Compute integral first derivatives.
 ... and contract with generalized density number  0.
 R6Disp: Adding Grimme-D3 dispersion energy 1st derivatives to the gradient.
 Leave Link  701 at Mon Aug  7 13:04:34 2023, MaxMem=   458752000 cpu:         0.2
 (Enter /opt/apps/apps/binapps/gaussian/g09d01_em64t/g09/l702.exe)
 L702 exits ... SP integral derivatives will be done elsewhere.
 Leave Link  702 at Mon Aug  7 13:04:34 2023, MaxMem=   458752000 cpu:         0.0
 (Enter /opt/apps/apps/binapps/gaussian/g09d01_em64t/g09/l703.exe)
 Compute integral first derivatives, UseDBF=F ICtDFT=           0.
 Integral derivatives from FoFJK, PRISM(SPDF).
 Calling FoFJK, ICntrl=      2127 FMM=F ISym2X=0 I1Cent= 0 IOpClX= 0 NMat=1 NMatS=1 NMatT=0.
 FoFJK:  IHMeth= 1 ICntrl=    2127 DoSepK=F KAlg= 0 I1Cent=   0 FoldK=F
 IRaf=         0 NMat=   1 IRICut=       1 DoRegI=T DoRafI=F ISym2E= 0.
 FoFCou: FMM=F IPFlag=           0 FMFlag=      100000 FMFlg1=         800
         NFxFlg=           0 DoJE=F BraDBF=F KetDBF=F FulRan=T
         wScrn=  0.000000 ICntrl=    2127 IOpCl=  0 I1Cent=           0 NGrid=           0
         NMat0=    1 NMatS0=      1 NMatT0=    0 NMatD0=    1 NMtDS0=    0 NMtDT0=    0
 Symmetry not used in FoFCou.
 Leave Link  703 at Mon Aug  7 13:05:03 2023, MaxMem=   458752000 cpu:        28.6
 (Enter /opt/apps/apps/binapps/gaussian/g09d01_em64t/g09/l716.exe)
 Dipole        =-7.73241044D-01-1.40330054D+00-8.64042894D-01
 ***** Axes restored to original set *****
 -------------------------------------------------------------------
 Center     Atomic                   Forces (Hartrees/Bohr)
 Number     Number              X              Y              Z
 -------------------------------------------------------------------
      1        6          -0.045567121    0.052415869    0.007452738
      2        6           0.034465450    0.003802150   -0.019977419
      3        6          -0.001708155   -0.037183100    0.003611494
      4        6          -0.012815930   -0.002065740    0.007468764
      5        6          -0.000124382    0.022898584   -0.074242726
      6        6           0.047981079   -0.052847292   -0.025752370
      7        6          -0.054870337    0.056121580    0.001990420
      8        8           0.016844980    0.021560902   -0.016194391
      9        8           0.019429386   -0.006844344    0.011567219
     10        8          -0.052489354    0.012916988    0.015505842
     11        6           0.034924336    0.005120999   -0.004443274
     12        6          -0.025584116    0.008811929    0.015156481
     13        8           0.011206712   -0.011532294    0.001028644
     14        1          -0.016131953   -0.032856774    0.021658101
     15        1           0.025729332   -0.010805725   -0.003688188
     16        1          -0.014278231    0.001900256    0.006015682
     17        1           0.012444096    0.017246767   -0.002155282
     18        1           0.007102457   -0.023853183   -0.002042542
     19        1           0.005878225   -0.000883267   -0.000704166
     20        1          -0.002992602   -0.019436012    0.005022691
     21        1           0.010556129   -0.004488292    0.052722283
 -------------------------------------------------------------------
 Cartesian Forces:  Max     0.074242726 RMS     0.025375156
 Z-matrix is all fixed cartesians, so copy forces.
 Leave Link  716 at Mon Aug  7 13:05:03 2023, MaxMem=   458752000 cpu:         0.0
 (Enter /opt/apps/apps/binapps/gaussian/g09d01_em64t/g09/l103.exe)

 GradGradGradGradGradGradGradGradGradGradGradGradGradGradGradGradGradGrad
 Berny optimization.
 Search for a local minimum.
 Step number   1 out of a maximum of    2
 All quantities printed in internal units (Hartrees-Bohrs-Radians)
 Second derivative matrix not updated -- first step.
 ITU=  0
     Eigenvalues ---    0.00052   0.00070   0.00111   0.00227   0.00276
     Eigenvalues ---    0.00630   0.00966   0.01297   0.01524   0.02239
     Eigenvalues ---    0.02777   0.03246   0.03690   0.04291   0.05025
     Eigenvalues ---    0.05410   0.06639   0.07022   0.07329   0.07832
     Eigenvalues ---    0.07909   0.09144   0.10702   0.12330   0.12657
     Eigenvalues ---    0.13584   0.14389   0.14628   0.15018   0.18269
     Eigenvalues ---    0.18917   0.22828   0.24781   0.27656   0.29487
     Eigenvalues ---    0.32574   0.38403   0.41130   0.47090   0.49148
     Eigenvalues ---    0.58552   0.66630   0.77531   0.89703   0.99001
     Eigenvalues ---    1.03120   1.04493   1.08357   1.12883   1.22705
     Eigenvalues ---    1.31879   1.42750   1.43466   1.57064   1.71973
     Eigenvalues ---    2.33141   2.36787
 Quadratic step=1.939D+00 exceeds max=3.000D-01 adjusted using Lamda=-1.830D-01.
 Angle between NR and scaled steps=  53.74 degrees.
 Angle between quadratic step and forces=  42.40 degrees.
 Linear search not attempted -- first point.
 TrRot=  0.004418  0.014827 -0.016530  1.795640 -0.000667 -1.795395
 Variable       Old X    -DE/DX   Delta X   Delta X   Delta X     New X
                                 (Linear)    (Quad)   (Total)
    X1       27.21780  -0.04557   0.00000  -0.03283  -0.03110  27.18670
    Y1       24.79840   0.05242   0.00000   0.02950   0.03608  24.83447
    Z1       22.96141   0.00745   0.00000  -0.00175  -0.00619  22.95522
    X2       22.28660   0.03447   0.00000   0.01497   0.01633  22.30293
    Y2       26.71114   0.00380   0.00000   0.01588   0.02083  26.73197
    Z2       23.65318  -0.01998   0.00000  -0.04323  -0.04570  23.60747
    X3       26.74145  -0.00171   0.00000  -0.00173  -0.00065  26.74080
    Y3       27.46564  -0.03718   0.00000  -0.02560  -0.01907  27.44658
    Z3       22.85611   0.00361   0.00000   0.00783   0.00516  22.86127
    X4       24.30246  -0.01282   0.00000   0.00273   0.00362  24.30608
    Y4       28.43493  -0.00207   0.00000  -0.02250  -0.01680  28.41812
    Z4       23.22388   0.00747   0.00000   0.00476   0.00308  23.22695
    X5       16.53438  -0.00012   0.00000  -0.00305  -0.00022  16.53416
    Y5       20.76326   0.02290   0.00000   0.00840   0.01193  20.77520
    Z5       23.67617  -0.07424   0.00000  -0.05291  -0.05840  23.61777
    X6       25.17756   0.04798   0.00000   0.01414   0.01634  25.19390
    Y6       23.20109  -0.05285   0.00000  -0.04496  -0.03915  23.16194
    Z6       23.44955  -0.02575   0.00000  -0.06140  -0.06662  23.38293
    X7       22.78334  -0.05487   0.00000  -0.03660  -0.03461  22.74874
    Y7       24.08820   0.05612   0.00000   0.03627   0.04136  24.12957
    Z7       23.58030   0.00199   0.00000  -0.01930  -0.02354  23.55676
    X8       27.63047   0.01684   0.00000   0.05621   0.05920  27.68967
    Y8       19.29776   0.02156   0.00000   0.05870   0.06577  19.36353
    Z8       22.43259  -0.01619   0.00000  -0.03771  -0.04578  22.38681
    X9       17.96838   0.01943   0.00000   0.06108   0.06270  18.03108
    Y9       23.89959  -0.00684   0.00000  -0.00626  -0.00042  23.89917
    Z9       20.61860   0.01157   0.00000   0.02441   0.02072  20.63932
   X10       24.29435  -0.05249   0.00000  -0.07596  -0.07252  24.22183
   Y10       18.92808   0.01292   0.00000   0.01219   0.01691  18.94499
   Z10       24.69414   0.01551   0.00000   0.01080   0.00297  24.69711
   X11       25.81604   0.03492   0.00000   0.04370   0.04660  25.86263
   Y11       20.32540   0.00512   0.00000  -0.01077  -0.00478  20.32062
   Z11       23.35043  -0.00444   0.00000   0.02391   0.01674  23.36717
   X12       18.44002  -0.02558   0.00000  -0.02746  -0.02526  18.41476
   Y12       22.59357   0.00881   0.00000   0.02763   0.03236  22.62593
   Z12       22.42661   0.01516   0.00000   0.05684   0.05228  22.47889
   X13       20.65058   0.01121   0.00000   0.00343   0.00586  20.65644
   Y13       22.52649  -0.01153   0.00000  -0.01569  -0.01132  22.51518
   Z13       23.85943   0.00103   0.00000   0.01764   0.01267  23.87210
   X14       22.94471  -0.01613   0.00000  -0.12262  -0.11944  22.82527
   Y14       20.21239  -0.03286   0.00000  -0.09162  -0.08739  20.12500
   Z14       24.84130   0.02166   0.00000   0.09669   0.08984  24.93114
   X15       29.00774   0.02573   0.00000   0.02388   0.02576  29.03351
   Y15       24.01969  -0.01081   0.00000   0.00308   0.01032  24.03001
   Z15       22.63717  -0.00369   0.00000   0.00321  -0.00202  22.63515
   X16       20.39586  -0.01428   0.00000  -0.01857  -0.01738  20.37848
   Y16       27.39693   0.00190   0.00000   0.00796   0.01243  27.40936
   Z16       23.59836   0.00602   0.00000   0.02037   0.01862  23.61698
   X17       28.31726   0.01244   0.00000   0.01179   0.01250  28.32976
   Y17       28.61722   0.01725   0.00000   0.02648   0.03368  28.65090
   Z17       22.41274  -0.00216   0.00000   0.00884   0.00671  22.41946
   X18       23.88635   0.00710   0.00000   0.02348   0.02387  23.91022
   Y18       30.52022  -0.02385   0.00000  -0.06207  -0.05646  30.46376
   Z18       23.21248  -0.00204   0.00000  -0.00490  -0.00519  23.20730
   X19       14.63044   0.00588   0.00000   0.00298   0.00558  14.63603
   Y19       21.30281  -0.00088   0.00000   0.00189   0.00535  21.30816
   Z19       23.03404  -0.00070   0.00000  -0.01810  -0.02296  23.01108
   X20       17.02935  -0.00299   0.00000  -0.01666  -0.01352  17.01583
   Y20       19.02184  -0.01944   0.00000  -0.05263  -0.04842  18.97342
   Z20       22.74261   0.00502   0.00000   0.01145   0.00472  22.74733
   X21       16.53832   0.01056   0.00000   0.03316   0.03632  16.57464
   Y21       20.67593  -0.00449   0.00000  -0.00543  -0.00321  20.67272
   Z21       25.60941   0.05272   0.00000   0.04844   0.04287  25.65229
         Item               Value     Threshold  Converged?
 Maximum Force            0.074243     0.000450     NO 
 RMS     Force            0.025375     0.000300     NO 
 Maximum Displacement     0.119439     0.001800     NO 
 RMS     Displacement     0.037603     0.001200     NO 
 Predicted change in Energy=-3.061286D-02
 GradGradGradGradGradGradGradGradGradGradGradGradGradGradGradGradGradGrad

 Leave Link  103 at Mon Aug  7 13:05:03 2023, MaxMem=   458752000 cpu:         0.0
 (Enter /opt/apps/apps/binapps/gaussian/g09d01_em64t/g09/l9999.exe)
 1\1\GINC-NODE616\Force\RB3LYP\6-31G(d)\C9H8O4\MBDX6CW3\07-Aug-2023\0\\
 #p b3lyp/6-31g* pop=mk empiricaldispersion=gd3 int(ultrafine) force\\a
 spirin\\0,1\C,14.40303683,13.12274575,12.15065241\C,11.79356337,14.134
 92441,12.51672149\C,14.1509676,14.53419209,12.09493399\C,12.8603065,15
 .04711509,12.28954554\C,8.74961555,10.98744631,12.52889037\C,13.323390
 48,12.27748871,12.40896583\C,12.05642581,12.74692893,12.47815728\O,14.
 62141275,10.21193504,11.87081456\O,9.50845838,12.64711976,10.91089129\
 O,12.85601616,10.01631021,13.06757569\C,13.66125822,10.75573802,12.356
 51612\C,9.75803733,11.95600271,11.86764956\O,10.92781544,11.92050576,1
 2.62586832\H,12.141819,10.69593668,13.14545155\H,15.35023689,12.710671
 42,11.97907567\H,10.79302192,14.49783087,12.48771429\H,14.98484731,15.
 14357924,11.86031342\H,12.64011145,16.15060687,12.28351593\H,7.7420973
 8,11.27295971,12.18908787\H,9.01154459,10.06592155,12.03486919\H,8.751
 7041,10.94123006,13.55191708\\Version=ES64L-G09RevD.01\State=1-A\HF=-6
 48.6636551\RMSD=6.060e-09\RMSF=2.538e-02\Dipole=-1.0980874,1.2696348,0
 .7042413\Quadrupole=2.3874097,0.0206957,-2.4081054,10.8068266,-3.12939
 67,0.4929644\PG=C01 [X(C9H8O4)]\\@


 ERWIN WITH HIS PSI CAN DO
 CALCULATIONS QUITE A FEW.
 BUT ONE THING HAS NOT BEEN SEEN
 JUST WHAT DOES PSI REALLY MEAN.
 -- WALTER HUCKEL, TRANS. BY FELIX BLOCH
 Job cpu time:       0 days  0 hours  2 minutes 30.1 seconds.
 File lengths (MBytes):  RWF=     20 Int=      0 D2E=      0 Chk=      3 Scr=      1
 Normal termination of Gaussian 09 at Mon Aug  7 13:05:03 2023.
