 Entering Gaussian System, Link 0=/opt/apps/apps/binapps/gaussian/g09d01_em64t/g09/g09
 Initial command:
 /opt/apps/apps/binapps/gaussian/g09d01_em64t/g09/l1.exe "/net/scratch2/mbdx6cw3/aspirin/300K-meta/dft/qm_input/gau_temp_7/Gau-3440.inp" -scrdir="/net/scratch2/mbdx6cw3/aspirin/300K-meta/dft/qm_input/gau_temp_7/"
 Entering Link 1 = /opt/apps/apps/binapps/gaussian/g09d01_em64t/g09/l1.exe PID=      3442.
  
 Copyright (c) 1988,1990,1992,1993,1995,1998,2003,2009,2013,
            Gaussian, Inc.  All Rights Reserved.
  
 This is part of the Gaussian(R) 09 program.  It is based on
 the Gaussian(R) 03 system (copyright 2003, Gaussian, Inc.),
 the Gaussian(R) 98 system (copyright 1998, Gaussian, Inc.),
 the Gaussian(R) 94 system (copyright 1995, Gaussian, Inc.),
 the Gaussian 92(TM) system (copyright 1992, Gaussian, Inc.),
 the Gaussian 90(TM) system (copyright 1990, Gaussian, Inc.),
 the Gaussian 88(TM) system (copyright 1988, Gaussian, Inc.),
 the Gaussian 86(TM) system (copyright 1986, Carnegie Mellon
 University), and the Gaussian 82(TM) system (copyright 1983,
 Carnegie Mellon University). Gaussian is a federally registered
 trademark of Gaussian, Inc.
  
 This software contains proprietary and confidential information,
 including trade secrets, belonging to Gaussian, Inc.
  
 This software is provided under written license and may be
 used, copied, transmitted, or stored only in accord with that
 written license.
  
 The following legend is applicable only to US Government
 contracts under FAR:
  
                    RESTRICTED RIGHTS LEGEND
  
 Use, reproduction and disclosure by the US Government is
 subject to restrictions as set forth in subparagraphs (a)
 and (c) of the Commercial Computer Software - Restricted
 Rights clause in FAR 52.227-19.
  
 Gaussian, Inc.
 340 Quinnipiac St., Bldg. 40, Wallingford CT 06492
  
  
 ---------------------------------------------------------------
 Warning -- This program may not be used in any manner that
 competes with the business of Gaussian, Inc. or will provide
 assistance to any competitor of Gaussian, Inc.  The licensee
 of this program is prohibited from giving any competitor of
 Gaussian, Inc. access to this program.  By using this program,
 the user acknowledges that Gaussian, Inc. is engaged in the
 business of creating and licensing software in the field of
 computational chemistry and represents and warrants to the
 licensee that it is not a competitor of Gaussian, Inc. and that
 it will not use this program in any manner prohibited above.
 ---------------------------------------------------------------
  

 Cite this work as:
 Gaussian 09, Revision D.01,
 M. J. Frisch, G. W. Trucks, H. B. Schlegel, G. E. Scuseria, 
 M. A. Robb, J. R. Cheeseman, G. Scalmani, V. Barone, B. Mennucci, 
 G. A. Petersson, H. Nakatsuji, M. Caricato, X. Li, H. P. Hratchian, 
 A. F. Izmaylov, J. Bloino, G. Zheng, J. L. Sonnenberg, M. Hada, 
 M. Ehara, K. Toyota, R. Fukuda, J. Hasegawa, M. Ishida, T. Nakajima, 
 Y. Honda, O. Kitao, H. Nakai, T. Vreven, J. A. Montgomery, Jr., 
 J. E. Peralta, F. Ogliaro, M. Bearpark, J. J. Heyd, E. Brothers, 
 K. N. Kudin, V. N. Staroverov, T. Keith, R. Kobayashi, J. Normand, 
 K. Raghavachari, A. Rendell, J. C. Burant, S. S. Iyengar, J. Tomasi, 
 M. Cossi, N. Rega, J. M. Millam, M. Klene, J. E. Knox, J. B. Cross, 
 V. Bakken, C. Adamo, J. Jaramillo, R. Gomperts, R. E. Stratmann, 
 O. Yazyev, A. J. Austin, R. Cammi, C. Pomelli, J. W. Ochterski, 
 R. L. Martin, K. Morokuma, V. G. Zakrzewski, G. A. Voth, 
 P. Salvador, J. J. Dannenberg, S. Dapprich, A. D. Daniels, 
 O. Farkas, J. B. Foresman, J. V. Ortiz, J. Cioslowski, 
 and D. J. Fox, Gaussian, Inc., Wallingford CT, 2013.
 
 ******************************************
 Gaussian 09:  ES64L-G09RevD.01 24-Apr-2013
                 7-Aug-2023 
 ******************************************
 %chk=./gau_temp_7/mol_chk.chk
 %mem=3500MB
 -------------------------------------------------------------------
 #p b3lyp/6-31g* pop=mk empiricaldispersion=gd3 int(ultrafine) force
 -------------------------------------------------------------------
 1/10=7,30=1,38=1/1,3;
 2/12=2,17=6,18=5,40=1/2;
 3/5=1,6=6,7=1,11=2,16=1,25=1,30=1,71=1,74=-5,75=-5,124=31/1,2,3;
 4//1;
 5/5=2,38=5/2;
 6/7=2,8=2,9=2,10=2,15=8,20=1,28=1/1,2;
 7/29=1/1,2,3,16;
 1/10=7,30=1/3;
 99//99;
 Leave Link    1 at Mon Aug  7 12:55:14 2023, MaxMem=   458752000 cpu:         0.0
 (Enter /opt/apps/apps/binapps/gaussian/g09d01_em64t/g09/l101.exe)
 -------
 aspirin
 -------
 Symbolic Z-matrix:
 Charge =  0 Multiplicity = 1
 C                     14.16406   12.16531   13.46495 
 C                     12.01443   13.82762   13.1375 
 C                     13.92946   13.22138   14.38392 
 C                     12.92673   14.20077   14.11553 
 C                     9.02557   11.98409   10.56685 
 C                     13.29689   11.89245   12.4766 
 C                     12.10566   12.66155   12.39851 
 O                     14.51778   9.9285    11.89675 
 O                     9.29014   13.43957   12.39225 
 O                     12.81186   10.54493   10.53887 
 C                     13.58355   10.72293   11.63659 
 C                     9.82599   12.84788   11.49807 
 O                     11.14112   12.42327   11.50058 
 H                     12.18883   11.2789   10.67184 
 H                     14.94155   11.48889   13.72359 
 H                     11.26012   14.59156   12.79307 
 H                     14.64351   13.44674   15.15306 
 H                     12.84152   15.10547   14.75538 
 H                     9.15918   10.92229   10.80315 
 H                     7.93942   12.25294   10.5779 
 H                     9.48743   12.2353   9.5437 
 
 NAtoms=     21 NQM=       21 NQMF=       0 NMMI=      0 NMMIF=      0
                NMic=       0 NMicF=      0.
                    Isotopes and Nuclear Properties:
 (Nuclear quadrupole moments (NQMom) in fm**2, nuclear magnetic moments (NMagM)
  in nuclear magnetons)

  Atom         1           2           3           4           5           6           7           8           9          10
 IAtWgt=          12          12          12          12          12          12          12          16          16          16
 AtmWgt=  12.0000000  12.0000000  12.0000000  12.0000000  12.0000000  12.0000000  12.0000000  15.9949146  15.9949146  15.9949146
 NucSpn=           0           0           0           0           0           0           0           0           0           0
 AtZEff=   0.0000000   0.0000000   0.0000000   0.0000000   0.0000000   0.0000000   0.0000000   0.0000000   0.0000000   0.0000000
 NQMom=    0.0000000   0.0000000   0.0000000   0.0000000   0.0000000   0.0000000   0.0000000   0.0000000   0.0000000   0.0000000
 NMagM=    0.0000000   0.0000000   0.0000000   0.0000000   0.0000000   0.0000000   0.0000000   0.0000000   0.0000000   0.0000000
 AtZNuc=   6.0000000   6.0000000   6.0000000   6.0000000   6.0000000   6.0000000   6.0000000   8.0000000   8.0000000   8.0000000

  Atom        11          12          13          14          15          16          17          18          19          20
 IAtWgt=          12          12          16           1           1           1           1           1           1           1
 AtmWgt=  12.0000000  12.0000000  15.9949146   1.0078250   1.0078250   1.0078250   1.0078250   1.0078250   1.0078250   1.0078250
 NucSpn=           0           0           0           1           1           1           1           1           1           1
 AtZEff=   0.0000000   0.0000000   0.0000000   0.0000000   0.0000000   0.0000000   0.0000000   0.0000000   0.0000000   0.0000000
 NQMom=    0.0000000   0.0000000   0.0000000   0.0000000   0.0000000   0.0000000   0.0000000   0.0000000   0.0000000   0.0000000
 NMagM=    0.0000000   0.0000000   0.0000000   2.7928460   2.7928460   2.7928460   2.7928460   2.7928460   2.7928460   2.7928460
 AtZNuc=   6.0000000   6.0000000   8.0000000   1.0000000   1.0000000   1.0000000   1.0000000   1.0000000   1.0000000   1.0000000

  Atom        21
 IAtWgt=           1
 AtmWgt=   1.0078250
 NucSpn=           1
 AtZEff=   0.0000000
 NQMom=    0.0000000
 NMagM=    2.7928460
 AtZNuc=   1.0000000
 Leave Link  101 at Mon Aug  7 12:55:14 2023, MaxMem=   458752000 cpu:         0.1
 (Enter /opt/apps/apps/binapps/gaussian/g09d01_em64t/g09/l103.exe)

 GradGradGradGradGradGradGradGradGradGradGradGradGradGradGradGradGradGrad
 Berny optimization.
 Initialization pass.
 Trust Radius=3.00D-01 FncErr=1.00D-07 GrdErr=1.00D-07
 Number of steps in this run=      2 maximum allowed number of steps=      2.
 GradGradGradGradGradGradGradGradGradGradGradGradGradGradGradGradGradGrad

 Leave Link  103 at Mon Aug  7 12:55:14 2023, MaxMem=   458752000 cpu:         0.0
 (Enter /opt/apps/apps/binapps/gaussian/g09d01_em64t/g09/l202.exe)
                          Input orientation:                          
 ---------------------------------------------------------------------
 Center     Atomic      Atomic             Coordinates (Angstroms)
 Number     Number       Type             X           Y           Z
 ---------------------------------------------------------------------
      1          6           0       14.164059   12.165314   13.464949
      2          6           0       12.014430   13.827624   13.137501
      3          6           0       13.929464   13.221377   14.383917
      4          6           0       12.926733   14.200766   14.115525
      5          6           0        9.025574   11.984094   10.566846
      6          6           0       13.296885   11.892455   12.476596
      7          6           0       12.105664   12.661545   12.398515
      8          8           0       14.517779    9.928499   11.896755
      9          8           0        9.290141   13.439572   12.392248
     10          8           0       12.811860   10.544927   10.538869
     11          6           0       13.583553   10.722934   11.636593
     12          6           0        9.825990   12.847881   11.498070
     13          8           0       11.141124   12.423271   11.500577
     14          1           0       12.188832   11.278903   10.671839
     15          1           0       14.941547   11.488889   13.723587
     16          1           0       11.260116   14.591560   12.793069
     17          1           0       14.643513   13.446735   15.153065
     18          1           0       12.841518   15.105469   14.755377
     19          1           0        9.159185   10.922287   10.803152
     20          1           0        7.939423   12.252936   10.577903
     21          1           0        9.487431   12.235298    9.543705
 ---------------------------------------------------------------------
                    Distance matrix (angstroms):
                    1          2          3          4          5
     1  C    0.000000
     2  C    2.737043   0.000000
     3  C    1.419439   2.363989   0.000000
     4  C    2.469269   1.388548   1.427132   0.000000
     5  C    5.902192   4.352026   6.336327   5.720647   0.000000
     6  C    1.342864   2.413788   2.409163   2.855067   4.679706
     7  C    2.370763   1.383534   2.753448   2.447750   3.647041
     8  O    2.754576   4.796810   4.168349   5.070171   6.013190
     9  O    5.150680   2.850919   5.053481   4.095596   2.349575
    10  O    3.607775   4.262029   4.816307   5.115743   4.050673
    11  C    2.400069   3.788664   3.729565   4.321092   4.848717
    12  C    4.811794   2.904635   5.030518   4.277381   1.501323
    13  O    3.614338   2.326885   4.089678   3.631232   2.353780
    14  H    3.533938   3.550477   4.536797   4.576108   3.242610
    15  H    1.062512   3.792254   2.112312   3.401083   6.723762
    16  H    3.843303   1.127484   3.396118   2.163152   4.092447
    17  H    2.172936   3.334614   1.073425   2.142984   7.398240
    18  H    3.472583   2.221370   2.207127   1.111377   6.469018
    19  H    5.803365   4.694954   6.392437   5.992885   1.095960
    20  H    6.862129   5.063286   7.162696   6.417327   1.118983
    21  H    6.103434   4.672965   6.643166   6.049249   1.150319
                    6          7          8          9         10
     6  C    0.000000
     7  C    1.420072   0.000000
     8  O    2.384097   3.679620   0.000000
     9  O    4.295892   2.921050   6.316751   0.000000
    10  O    2.409536   2.904663   2.265833   4.921025   0.000000
    11  C    1.468183   2.553996   1.253630   5.136587   1.353586
    12  C    3.730613   2.458137   5.540274   1.198660   3.890898
    13  O    2.425219   1.339181   4.216947   2.292179   2.691545
    14  H    2.204853   2.213600   2.957703   4.003836   0.971888
    15  H    2.103037   3.342629   2.439613   6.125032   3.945765
    16  H    3.396138   2.143731   5.758462   2.317010   4.885137
    17  H    3.375304   3.826845   4.795555   6.023351   5.750326
    18  H    3.965308   3.474053   6.146754   4.579505   6.211148
    19  H    4.567516   3.775175   5.558607   2.979782   3.681614
    20  H    5.695383   4.564992   7.100504   2.554289   5.163280
    21  H    4.819889   3.897021   6.013532   3.098935   3.859991
                   11         12         13         14         15
    11  C    0.000000
    12  C    4.319013   0.000000
    13  O    2.979112   1.381983   0.000000
    14  H    1.784685   2.954213   1.758998   0.000000
    15  H    2.605068   5.741839   4.500895   4.115180   0.000000
    16  H    4.658547   2.602721   2.527088   4.041760   4.903607
    17  H    4.572546   6.076689   5.162836   5.550346   2.442415
    18  H    5.429921   4.979976   4.547444   5.634171   4.307477
    19  H    4.506595   2.153011   2.582138   3.053388   6.502745
    20  H    5.942890   2.181697   3.336350   4.360624   7.714197
    21  H    4.842070   2.075915   2.568926   3.079763   6.912013
                   16         17         18         19         20
    16  H    0.000000
    17  H    4.281072   0.000000
    18  H    2.572078   2.481278   0.000000
    19  H    4.673034   7.441266   6.832179   0.000000
    20  H    4.626351   8.203785   7.044059   1.819117   0.000000
    21  H    4.387796   7.714770   6.830029   1.848771   1.861775
                   21
    21  H    0.000000
 Stoichiometry    C9H8O4
 Framework group  C1[X(C9H8O4)]
 Deg. of freedom    57
 Full point group                 C1      NOp   1
 Largest Abelian subgroup         C1      NOp   1
 Largest concise Abelian subgroup C1      NOp   1
                         Standard orientation:                         
 ---------------------------------------------------------------------
 Center     Atomic      Atomic             Coordinates (Angstroms)
 Number     Number       Type             X           Y           Z
 ---------------------------------------------------------------------
      1          6           0        2.304955    0.572320    0.150856
      2          6           0       -0.111891    1.772351   -0.307605
      3          6           0        2.183148    1.984938    0.217795
      4          6           0        0.978886    2.625121   -0.202469
      5          6           0       -3.359871   -1.084551    0.170791
      6          6           0        1.233290   -0.213965   -0.040388
      7          6           0       -0.043110    0.402158   -0.128704
      8          8           0        2.553374   -2.165590    0.323559
      9          8           0       -2.801744    1.182930    0.430642
     10          8           0        0.413741   -2.456779   -0.362866
     11          6           0        1.450832   -1.665428   -0.001756
     12          6           0       -2.482396    0.118748   -0.019155
     13          8           0       -1.182186   -0.292753   -0.242761
     14          1           0       -0.261215   -1.770044   -0.494755
     15          1           0        3.239157    0.171663    0.460165
     16          1           0       -1.069385    2.182550   -0.739071
     17          1           0        3.050921    2.604041    0.343982
     18          1           0        0.933785    3.732130   -0.289964
     19          1           0       -2.954843   -1.748480    0.942982
     20          1           0       -4.413667   -0.798448    0.415293
     21          1           0       -3.313291   -1.586027   -0.863417
 ---------------------------------------------------------------------
 Rotational constants (GHZ):      1.0901918      0.7039688      0.4379565
 Leave Link  202 at Mon Aug  7 12:55:14 2023, MaxMem=   458752000 cpu:         0.0
 (Enter /opt/apps/apps/binapps/gaussian/g09d01_em64t/g09/l301.exe)
 Standard basis: 6-31G(d) (6D, 7F)
 Ernie: Thresh=  0.10000D-02 Tol=  0.10000D-05 Strict=F.
 There are   211 symmetry adapted cartesian basis functions of A   symmetry.
 There are   211 symmetry adapted basis functions of A   symmetry.
   211 basis functions,   396 primitive gaussians,   211 cartesian basis functions
    47 alpha electrons       47 beta electrons
       nuclear repulsion energy       773.4216852345 Hartrees.
 IExCor=  402 DFT=T Ex+Corr=B3LYP ExCW=0 ScaHFX=  0.200000
 ScaDFX=  0.800000  0.720000  1.000000  0.810000 ScalE2=  1.000000  1.000000
 IRadAn=      5 IRanWt=     -1 IRanGd=            0 ICorTp=0 IEmpDi=131
 NAtoms=   21 NActive=   21 NUniq=   21 SFac= 1.00D+00 NAtFMM=   60 NAOKFM=F Big=F
 Integral buffers will be    131072 words long.
 Raffenetti 2 integral format.
 Two-electron integral symmetry is turned on.
 R6Disp:  Grimme-D3 Dispersion energy=       -0.0174459710 Hartrees.
 Nuclear repulsion after empirical dispersion term =      773.4042392635 Hartrees.
 Leave Link  301 at Mon Aug  7 12:55:14 2023, MaxMem=   458752000 cpu:         0.1
 (Enter /opt/apps/apps/binapps/gaussian/g09d01_em64t/g09/l302.exe)
 NPDir=0 NMtPBC=     1 NCelOv=     1 NCel=       1 NClECP=     1 NCelD=      1
         NCelK=      1 NCelE2=     1 NClLst=     1 CellRange=     0.0.
 One-electron integrals computed using PRISM.
 NBasis=   211 RedAO= T EigKep=  5.71D-04  NBF=   211
 NBsUse=   211 1.00D-06 EigRej= -1.00D+00 NBFU=   211
 Precomputing XC quadrature grid using
 IXCGrd= 4 IRadAn=           5 IRanWt=          -1 IRanGd=           0 AccXCQ= 0.00D+00.
 Generated NRdTot=       0 NPtTot=           0 NUsed=           0 NTot=          32
 NSgBfM=   210   210   210   210   210 MxSgAt=    21 MxSgA2=    21.
 Leave Link  302 at Mon Aug  7 12:55:15 2023, MaxMem=   458752000 cpu:         0.6
 (Enter /opt/apps/apps/binapps/gaussian/g09d01_em64t/g09/l303.exe)
 DipDrv:  MaxL=1.
 Leave Link  303 at Mon Aug  7 12:55:15 2023, MaxMem=   458752000 cpu:         0.0
 (Enter /opt/apps/apps/binapps/gaussian/g09d01_em64t/g09/l401.exe)
 ExpMin= 1.61D-01 ExpMax= 5.48D+03 ExpMxC= 8.25D+02 IAcc=3 IRadAn=         5 AccDes= 0.00D+00
 Harris functional with IExCor=  402 and IRadAn=       5 diagonalized for initial guess.
 HarFok:  IExCor=  402 AccDes= 0.00D+00 IRadAn=         5 IDoV= 1 UseB2=F ITyADJ=14
 ICtDFT=  3500011 ScaDFX=  1.000000  1.000000  1.000000  1.000000
 FoFCou: FMM=F IPFlag=           0 FMFlag=      100000 FMFlg1=           0
         NFxFlg=           0 DoJE=T BraDBF=F KetDBF=T FulRan=T
         wScrn=  0.000000 ICntrl=     500 IOpCl=  0 I1Cent=   200000004 NGrid=           0
         NMat0=    1 NMatS0=      1 NMatT0=    0 NMatD0=    1 NMtDS0=    0 NMtDT0=    0
 Petite list used in FoFCou.
 Harris En= -648.692427906145    
 JPrj=0 DoOrth=F DoCkMO=F.
 Leave Link  401 at Mon Aug  7 12:55:22 2023, MaxMem=   458752000 cpu:         7.3
 (Enter /opt/apps/apps/binapps/gaussian/g09d01_em64t/g09/l502.exe)
 Closed shell SCF:
 Using DIIS extrapolation, IDIIS=  1040.
 Integral symmetry usage will be decided dynamically.
 Keep R1 ints in memory in canonical form, NReq=255049085.
 IVT=      154966 IEndB=      154966 NGot=   458752000 MDV=   208466874
 LenX=   208466874 LenY=   208421912
 Requested convergence on RMS density matrix=1.00D-08 within 128 cycles.
 Requested convergence on MAX density matrix=1.00D-06.
 Requested convergence on             energy=1.00D-06.
 No special actions if energy rises.
 FoFCou: FMM=F IPFlag=           0 FMFlag=           0 FMFlg1=           0
         NFxFlg=           0 DoJE=F BraDBF=F KetDBF=F FulRan=T
         wScrn=  0.000000 ICntrl=     600 IOpCl=  0 I1Cent=           0 NGrid=           0
         NMat0=    1 NMatS0=  22366 NMatT0=    0 NMatD0=    1 NMtDS0=    0 NMtDT0=    0
 Symmetry not used in FoFCou.
 Integral accuracy reduced to 1.0D-05 until final iterations.

 Cycle   1  Pass 0  IDiag  1:
 E= -648.290153940473    
 DIIS: error= 2.79D-02 at cycle   1 NSaved=   1.
 NSaved= 1 IEnMin= 1 EnMin= -648.290153940473     IErMin= 1 ErrMin= 2.79D-02
 ErrMax= 2.79D-02  0.00D+00 EMaxC= 1.00D-01 BMatC= 4.22D-01 BMatP= 4.22D-01
 IDIUse=3 WtCom= 7.21D-01 WtEn= 2.79D-01
 Coeff-Com:  0.100D+01
 Coeff-En:   0.100D+01
 Coeff:      0.100D+01
 Gap=     0.201 Goal=   None    Shift=    0.000
 GapD=    0.201 DampG=1.000 DampE=0.500 DampFc=0.5000 IDamp=-1.
 Damping current iteration by 5.00D-01
 RMSDP=8.11D-03 MaxDP=2.33D-01              OVMax= 2.92D-01

 Cycle   2  Pass 0  IDiag  1:
 E= -648.317742063645     Delta-E=       -0.027588123172 Rises=F Damp=T
 DIIS: error= 1.74D-02 at cycle   2 NSaved=   2.
 NSaved= 2 IEnMin= 2 EnMin= -648.317742063645     IErMin= 2 ErrMin= 1.74D-02
 ErrMax= 1.74D-02  0.00D+00 EMaxC= 1.00D-01 BMatC= 1.23D-01 BMatP= 4.22D-01
 IDIUse=3 WtCom= 8.26D-01 WtEn= 1.74D-01
 Coeff-Com:  0.309D+00 0.691D+00
 Coeff-En:   0.468D+00 0.532D+00
 Coeff:      0.337D+00 0.663D+00
 Gap=     0.192 Goal=   None    Shift=    0.000
 RMSDP=2.85D-03 MaxDP=9.02D-02 DE=-2.76D-02 OVMax= 2.65D-01

 Cycle   3  Pass 0  IDiag  1:
 E= -648.585677119141     Delta-E=       -0.267935055495 Rises=F Damp=F
 DIIS: error= 1.58D-02 at cycle   3 NSaved=   3.
 NSaved= 3 IEnMin= 3 EnMin= -648.585677119141     IErMin= 3 ErrMin= 1.58D-02
 ErrMax= 1.58D-02  0.00D+00 EMaxC= 1.00D-01 BMatC= 8.11D-02 BMatP= 1.23D-01
 IDIUse=3 WtCom= 8.42D-01 WtEn= 1.58D-01
 Coeff-Com:  0.128D+00 0.431D+00 0.441D+00
 Coeff-En:   0.000D+00 0.000D+00 0.100D+01
 Coeff:      0.107D+00 0.363D+00 0.530D+00
 Gap=     0.198 Goal=   None    Shift=    0.000
 RMSDP=1.79D-03 MaxDP=4.99D-02 DE=-2.68D-01 OVMax= 8.59D-02

 Cycle   4  Pass 0  IDiag  1:
 E= -648.643104971503     Delta-E=       -0.057427852362 Rises=F Damp=F
 DIIS: error= 8.80D-03 at cycle   4 NSaved=   4.
 NSaved= 4 IEnMin= 4 EnMin= -648.643104971503     IErMin= 4 ErrMin= 8.80D-03
 ErrMax= 8.80D-03  0.00D+00 EMaxC= 1.00D-01 BMatC= 1.82D-02 BMatP= 8.11D-02
 IDIUse=3 WtCom= 9.12D-01 WtEn= 8.80D-02
 Coeff-Com:  0.345D-01 0.728D-01 0.321D+00 0.572D+00
 Coeff-En:   0.000D+00 0.000D+00 0.204D+00 0.796D+00
 Coeff:      0.314D-01 0.664D-01 0.310D+00 0.592D+00
 Gap=     0.200 Goal=   None    Shift=    0.000
 RMSDP=6.40D-04 MaxDP=2.13D-02 DE=-5.74D-02 OVMax= 3.35D-02

 Cycle   5  Pass 0  IDiag  1:
 E= -648.656887057046     Delta-E=       -0.013782085543 Rises=F Damp=F
 DIIS: error= 2.49D-03 at cycle   5 NSaved=   5.
 NSaved= 5 IEnMin= 5 EnMin= -648.656887057046     IErMin= 5 ErrMin= 2.49D-03
 ErrMax= 2.49D-03  0.00D+00 EMaxC= 1.00D-01 BMatC= 9.14D-04 BMatP= 1.82D-02
 IDIUse=3 WtCom= 9.75D-01 WtEn= 2.49D-02
 Coeff-Com:  0.780D-02 0.121D-02 0.132D+00 0.334D+00 0.525D+00
 Coeff-En:   0.000D+00 0.000D+00 0.000D+00 0.000D+00 0.100D+01
 Coeff:      0.761D-02 0.118D-02 0.128D+00 0.326D+00 0.537D+00
 Gap=     0.189 Goal=   None    Shift=    0.000
 RMSDP=1.70D-04 MaxDP=6.99D-03 DE=-1.38D-02 OVMax= 9.09D-03

 Cycle   6  Pass 0  IDiag  1:
 E= -648.657527334305     Delta-E=       -0.000640277260 Rises=F Damp=F
 DIIS: error= 9.13D-04 at cycle   6 NSaved=   6.
 NSaved= 6 IEnMin= 6 EnMin= -648.657527334305     IErMin= 6 ErrMin= 9.13D-04
 ErrMax= 9.13D-04  0.00D+00 EMaxC= 1.00D-01 BMatC= 1.39D-04 BMatP= 9.14D-04
 IDIUse=3 WtCom= 9.91D-01 WtEn= 9.13D-03
 Coeff-Com:  0.207D-02-0.537D-02 0.513D-01 0.144D+00 0.340D+00 0.468D+00
 Coeff-En:   0.000D+00 0.000D+00 0.000D+00 0.000D+00 0.106D+00 0.894D+00
 Coeff:      0.205D-02-0.533D-02 0.508D-01 0.142D+00 0.338D+00 0.472D+00
 Gap=     0.189 Goal=   None    Shift=    0.000
 RMSDP=5.64D-05 MaxDP=2.18D-03 DE=-6.40D-04 OVMax= 3.08D-03

 Cycle   7  Pass 0  IDiag  1:
 E= -648.657625601005     Delta-E=       -0.000098266700 Rises=F Damp=F
 DIIS: error= 1.67D-04 at cycle   7 NSaved=   7.
 NSaved= 7 IEnMin= 7 EnMin= -648.657625601005     IErMin= 7 ErrMin= 1.67D-04
 ErrMax= 1.67D-04  0.00D+00 EMaxC= 1.00D-01 BMatC= 1.44D-05 BMatP= 1.39D-04
 IDIUse=3 WtCom= 9.98D-01 WtEn= 1.67D-03
 Coeff-Com:  0.534D-03-0.364D-02 0.176D-01 0.508D-01 0.159D+00 0.299D+00
 Coeff-Com:  0.477D+00
 Coeff-En:   0.000D+00 0.000D+00 0.000D+00 0.000D+00 0.000D+00 0.259D-01
 Coeff-En:   0.974D+00
 Coeff:      0.533D-03-0.363D-02 0.176D-01 0.507D-01 0.159D+00 0.298D+00
 Coeff:      0.478D+00
 Gap=     0.189 Goal=   None    Shift=    0.000
 RMSDP=1.91D-05 MaxDP=6.24D-04 DE=-9.83D-05 OVMax= 7.47D-04

 Cycle   8  Pass 0  IDiag  1:
 E= -648.657636051484     Delta-E=       -0.000010450478 Rises=F Damp=F
 DIIS: error= 5.51D-05 at cycle   8 NSaved=   8.
 NSaved= 8 IEnMin= 8 EnMin= -648.657636051484     IErMin= 8 ErrMin= 5.51D-05
 ErrMax= 5.51D-05  0.00D+00 EMaxC= 1.00D-01 BMatC= 1.17D-06 BMatP= 1.44D-05
 IDIUse=1 WtCom= 1.00D+00 WtEn= 0.00D+00
 Coeff-Com:  0.150D-03-0.148D-02 0.401D-02 0.110D-01 0.512D-01 0.111D+00
 Coeff-Com:  0.269D+00 0.556D+00
 Coeff:      0.150D-03-0.148D-02 0.401D-02 0.110D-01 0.512D-01 0.111D+00
 Coeff:      0.269D+00 0.556D+00
 Gap=     0.189 Goal=   None    Shift=    0.000
 RMSDP=5.69D-06 MaxDP=2.20D-04 DE=-1.05D-05 OVMax= 2.10D-04

 Initial convergence to 1.0D-05 achieved.  Increase integral accuracy.
 Cycle   9  Pass 1  IDiag  1:
 E= -648.657636904731     Delta-E=       -0.000000853247 Rises=F Damp=F
 DIIS: error= 1.34D-05 at cycle   1 NSaved=   1.
 NSaved= 1 IEnMin= 1 EnMin= -648.657636904731     IErMin= 1 ErrMin= 1.34D-05
 ErrMax= 1.34D-05  0.00D+00 EMaxC= 1.00D-01 BMatC= 6.69D-08 BMatP= 6.69D-08
 IDIUse=1 WtCom= 1.00D+00 WtEn= 0.00D+00
 Coeff-Com:  0.100D+01
 Coeff:      0.100D+01
 Gap=     0.189 Goal=   None    Shift=    0.000
 RMSDP=5.69D-06 MaxDP=2.20D-04 DE=-8.53D-07 OVMax= 1.29D-04

 Cycle  10  Pass 1  IDiag  1:
 E= -648.657636784958     Delta-E=        0.000000119773 Rises=F Damp=F
 DIIS: error= 2.92D-05 at cycle   2 NSaved=   2.
 NSaved= 2 IEnMin= 1 EnMin= -648.657636904731     IErMin= 1 ErrMin= 1.34D-05
 ErrMax= 2.92D-05  0.00D+00 EMaxC= 1.00D-01 BMatC= 2.18D-07 BMatP= 6.69D-08
 IDIUse=1 WtCom= 1.00D+00 WtEn= 0.00D+00
 Coeff-Com:  0.649D+00 0.351D+00
 Coeff:      0.649D+00 0.351D+00
 Gap=     0.189 Goal=   None    Shift=    0.000
 RMSDP=1.94D-06 MaxDP=7.87D-05 DE= 1.20D-07 OVMax= 1.09D-04

 Cycle  11  Pass 1  IDiag  1:
 E= -648.657636960986     Delta-E=       -0.000000176029 Rises=F Damp=F
 DIIS: error= 3.78D-06 at cycle   3 NSaved=   3.
 NSaved= 3 IEnMin= 3 EnMin= -648.657636960986     IErMin= 3 ErrMin= 3.78D-06
 ErrMax= 3.78D-06  0.00D+00 EMaxC= 1.00D-01 BMatC= 5.80D-09 BMatP= 6.69D-08
 IDIUse=1 WtCom= 1.00D+00 WtEn= 0.00D+00
 Coeff-Com:  0.309D+00 0.202D+00 0.489D+00
 Coeff:      0.309D+00 0.202D+00 0.489D+00
 Gap=     0.189 Goal=   None    Shift=    0.000
 RMSDP=4.13D-07 MaxDP=1.62D-05 DE=-1.76D-07 OVMax= 1.78D-05

 Cycle  12  Pass 1  IDiag  1:
 E= -648.657636964969     Delta-E=       -0.000000003983 Rises=F Damp=F
 DIIS: error= 1.28D-06 at cycle   4 NSaved=   4.
 NSaved= 4 IEnMin= 4 EnMin= -648.657636964969     IErMin= 4 ErrMin= 1.28D-06
 ErrMax= 1.28D-06  0.00D+00 EMaxC= 1.00D-01 BMatC= 7.45D-10 BMatP= 5.80D-09
 IDIUse=1 WtCom= 1.00D+00 WtEn= 0.00D+00
 Coeff-Com:  0.800D-01 0.661D-01 0.288D+00 0.566D+00
 Coeff:      0.800D-01 0.661D-01 0.288D+00 0.566D+00
 Gap=     0.189 Goal=   None    Shift=    0.000
 RMSDP=1.71D-07 MaxDP=5.06D-06 DE=-3.98D-09 OVMax= 1.06D-05

 Cycle  13  Pass 1  IDiag  1:
 E= -648.657636965478     Delta-E=       -0.000000000509 Rises=F Damp=F
 DIIS: error= 7.98D-07 at cycle   5 NSaved=   5.
 NSaved= 5 IEnMin= 5 EnMin= -648.657636965478     IErMin= 5 ErrMin= 7.98D-07
 ErrMax= 7.98D-07  0.00D+00 EMaxC= 1.00D-01 BMatC= 1.46D-10 BMatP= 7.45D-10
 IDIUse=1 WtCom= 1.00D+00 WtEn= 0.00D+00
 Coeff-Com:  0.426D-02 0.118D-01 0.996D-01 0.360D+00 0.525D+00
 Coeff:      0.426D-02 0.118D-01 0.996D-01 0.360D+00 0.525D+00
 Gap=     0.189 Goal=   None    Shift=    0.000
 RMSDP=7.23D-08 MaxDP=2.03D-06 DE=-5.09D-10 OVMax= 5.37D-06

 Cycle  14  Pass 1  IDiag  1:
 E= -648.657636965607     Delta-E=       -0.000000000129 Rises=F Damp=F
 DIIS: error= 1.94D-07 at cycle   6 NSaved=   6.
 NSaved= 6 IEnMin= 6 EnMin= -648.657636965607     IErMin= 6 ErrMin= 1.94D-07
 ErrMax= 1.94D-07  0.00D+00 EMaxC= 1.00D-01 BMatC= 1.51D-11 BMatP= 1.46D-10
 IDIUse=1 WtCom= 1.00D+00 WtEn= 0.00D+00
 Coeff-Com: -0.729D-02-0.688D-03 0.243D-01 0.151D+00 0.310D+00 0.523D+00
 Coeff:     -0.729D-02-0.688D-03 0.243D-01 0.151D+00 0.310D+00 0.523D+00
 Gap=     0.189 Goal=   None    Shift=    0.000
 RMSDP=2.23D-08 MaxDP=7.05D-07 DE=-1.29D-10 OVMax= 1.43D-06

 Cycle  15  Pass 1  IDiag  1:
 E= -648.657636965615     Delta-E=       -0.000000000008 Rises=F Damp=F
 DIIS: error= 9.98D-08 at cycle   7 NSaved=   7.
 NSaved= 7 IEnMin= 7 EnMin= -648.657636965615     IErMin= 7 ErrMin= 9.98D-08
 ErrMax= 9.98D-08  0.00D+00 EMaxC= 1.00D-01 BMatC= 1.65D-12 BMatP= 1.51D-11
 IDIUse=1 WtCom= 1.00D+00 WtEn= 0.00D+00
 Coeff-Com: -0.485D-02-0.134D-02 0.502D-02 0.603D-01 0.140D+00 0.317D+00
 Coeff-Com:  0.484D+00
 Coeff:     -0.485D-02-0.134D-02 0.502D-02 0.603D-01 0.140D+00 0.317D+00
 Coeff:      0.484D+00
 Gap=     0.189 Goal=   None    Shift=    0.000
 RMSDP=6.91D-09 MaxDP=2.48D-07 DE=-8.41D-12 OVMax= 3.59D-07

 SCF Done:  E(RB3LYP) =  -648.657636966     A.U. after   15 cycles
            NFock= 15  Conv=0.69D-08     -V/T= 2.0090
 KE= 6.428723457291D+02 PE=-3.060699657768D+03 EE= 9.957654358100D+02
 Leave Link  502 at Mon Aug  7 12:57:15 2023, MaxMem=   458752000 cpu:       112.0
 (Enter /opt/apps/apps/binapps/gaussian/g09d01_em64t/g09/l601.exe)
 Copying SCF densities to generalized density rwf, IOpCl= 0 IROHF=0.

 **********************************************************************

            Population analysis using the SCF density.

 **********************************************************************

 Orbital symmetries:
       Occupied  (A) (A) (A) (A) (A) (A) (A) (A) (A) (A) (A) (A)
                 (A) (A) (A) (A) (A) (A) (A) (A) (A) (A) (A) (A)
                 (A) (A) (A) (A) (A) (A) (A) (A) (A) (A) (A) (A)
                 (A) (A) (A) (A) (A) (A) (A) (A) (A) (A) (A)
       Virtual   (A) (A) (A) (A) (A) (A) (A) (A) (A) (A) (A) (A)
                 (A) (A) (A) (A) (A) (A) (A) (A) (A) (A) (A) (A)
                 (A) (A) (A) (A) (A) (A) (A) (A) (A) (A) (A) (A)
                 (A) (A) (A) (A) (A) (A) (A) (A) (A) (A) (A) (A)
                 (A) (A) (A) (A) (A) (A) (A) (A) (A) (A) (A) (A)
                 (A) (A) (A) (A) (A) (A) (A) (A) (A) (A) (A) (A)
                 (A) (A) (A) (A) (A) (A) (A) (A) (A) (A) (A) (A)
                 (A) (A) (A) (A) (A) (A) (A) (A) (A) (A) (A) (A)
                 (A) (A) (A) (A) (A) (A) (A) (A) (A) (A) (A) (A)
                 (A) (A) (A) (A) (A) (A) (A) (A) (A) (A) (A) (A)
                 (A) (A) (A) (A) (A) (A) (A) (A) (A) (A) (A) (A)
                 (A) (A) (A) (A) (A) (A) (A) (A) (A) (A) (A) (A)
                 (A) (A) (A) (A) (A) (A) (A) (A) (A) (A) (A) (A)
                 (A) (A) (A) (A) (A) (A) (A) (A)
 The electronic state is 1-A.
 Alpha  occ. eigenvalues --  -19.24978 -19.19106 -19.17766 -19.12443 -10.36099
 Alpha  occ. eigenvalues --  -10.31931 -10.28886 -10.23074 -10.22401 -10.22170
 Alpha  occ. eigenvalues --  -10.21317 -10.20976 -10.20744  -1.16131  -1.09697
 Alpha  occ. eigenvalues --   -1.07310  -0.99409  -0.88625  -0.80753  -0.78901
 Alpha  occ. eigenvalues --   -0.75083  -0.68913  -0.65824  -0.60468  -0.60008
 Alpha  occ. eigenvalues --   -0.55067  -0.52428  -0.52188  -0.51626  -0.48766
 Alpha  occ. eigenvalues --   -0.47363  -0.45582  -0.44728  -0.43455  -0.43331
 Alpha  occ. eigenvalues --   -0.42840  -0.41210  -0.40939  -0.38979  -0.37346
 Alpha  occ. eigenvalues --   -0.36301  -0.35683  -0.30911  -0.30109  -0.27567
 Alpha  occ. eigenvalues --   -0.26283  -0.25482
 Alpha virt. eigenvalues --   -0.06554  -0.04539  -0.01352   0.04299   0.07152
 Alpha virt. eigenvalues --    0.07840   0.11055   0.12878   0.13638   0.14223
 Alpha virt. eigenvalues --    0.15153   0.16447   0.17316   0.18864   0.21914
 Alpha virt. eigenvalues --    0.23516   0.25593   0.26794   0.29283   0.30401
 Alpha virt. eigenvalues --    0.32302   0.33576   0.38474   0.39615   0.45091
 Alpha virt. eigenvalues --    0.47441   0.48144   0.50516   0.52011   0.52702
 Alpha virt. eigenvalues --    0.53660   0.54378   0.55583   0.56759   0.57788
 Alpha virt. eigenvalues --    0.58311   0.59378   0.60591   0.60853   0.61316
 Alpha virt. eigenvalues --    0.63680   0.64010   0.65123   0.66819   0.68760
 Alpha virt. eigenvalues --    0.70744   0.72621   0.76327   0.77755   0.78921
 Alpha virt. eigenvalues --    0.80410   0.81379   0.82844   0.84349   0.86443
 Alpha virt. eigenvalues --    0.86648   0.87839   0.89541   0.90400   0.92074
 Alpha virt. eigenvalues --    0.93837   0.95521   0.96014   0.96497   1.01446
 Alpha virt. eigenvalues --    1.02076   1.02735   1.05499   1.07308   1.07925
 Alpha virt. eigenvalues --    1.09526   1.09698   1.13826   1.15719   1.18726
 Alpha virt. eigenvalues --    1.22960   1.24937   1.26272   1.29444   1.32601
 Alpha virt. eigenvalues --    1.34453   1.37787   1.38665   1.41244   1.41679
 Alpha virt. eigenvalues --    1.45637   1.47077   1.51396   1.54035   1.54656
 Alpha virt. eigenvalues --    1.59286   1.65119   1.65664   1.67571   1.69609
 Alpha virt. eigenvalues --    1.70417   1.72930   1.75693   1.77132   1.78606
 Alpha virt. eigenvalues --    1.80357   1.80935   1.82607   1.84540   1.85471
 Alpha virt. eigenvalues --    1.86579   1.88635   1.91158   1.91180   1.93708
 Alpha virt. eigenvalues --    1.94832   1.99006   2.01482   2.05310   2.07397
 Alpha virt. eigenvalues --    2.09453   2.10915   2.13400   2.13999   2.17779
 Alpha virt. eigenvalues --    2.19153   2.21671   2.25830   2.27701   2.30430
 Alpha virt. eigenvalues --    2.34053   2.35368   2.42544   2.43094   2.49820
 Alpha virt. eigenvalues --    2.52444   2.53087   2.54579   2.57281   2.58099
 Alpha virt. eigenvalues --    2.62063   2.65356   2.67335   2.72182   2.75180
 Alpha virt. eigenvalues --    2.75973   2.78349   2.81484   2.88270   2.92418
 Alpha virt. eigenvalues --    2.93738   2.98547   3.03199   3.14951   3.34110
 Alpha virt. eigenvalues --    3.40221   3.91426   3.94546   4.05268   4.06654
 Alpha virt. eigenvalues --    4.10643   4.12601   4.25331   4.31519   4.34983
 Alpha virt. eigenvalues --    4.40476   4.41381   4.52999   4.74839
          Condensed to atoms (all electrons):
               1          2          3          4          5          6
     1  C    5.044965  -0.056603   0.455652  -0.015805   0.000005   0.479993
     2  C   -0.056603   5.025455  -0.025952   0.497791   0.000469  -0.034634
     3  C    0.455652  -0.025952   4.974371   0.504984   0.000000  -0.016411
     4  C   -0.015805   0.497791   0.504984   4.904027   0.000003  -0.036486
     5  C    0.000005   0.000469   0.000000   0.000003   5.224838  -0.000343
     6  C    0.479993  -0.034634  -0.016411  -0.036486  -0.000343   5.171720
     7  C   -0.042001   0.492276  -0.041855  -0.015964   0.002586   0.457660
     8  O    0.005571  -0.000084   0.001084  -0.000011   0.000000  -0.102536
     9  O    0.000010  -0.003454  -0.000027   0.000348  -0.075588   0.000160
    10  O    0.007485  -0.000030  -0.000055  -0.000004   0.000096  -0.082406
    11  C   -0.041475   0.006499   0.007899  -0.000346  -0.000015   0.224553
    12  C    0.000112  -0.002337  -0.000017   0.000473   0.383660   0.002199
    13  O    0.004599  -0.056726  -0.000128   0.004279  -0.092828  -0.054367
    14  H   -0.000788   0.000916  -0.000029  -0.000033  -0.000034   0.005073
    15  H    0.367513   0.000264  -0.042342   0.004360   0.000000  -0.046449
    16  H    0.000757   0.353304   0.004829  -0.037964   0.000161   0.003726
    17  H   -0.038042   0.005626   0.361441  -0.044986   0.000000   0.004403
    18  H    0.003696  -0.035230  -0.038960   0.360825   0.000000   0.000396
    19  H   -0.000002   0.000023   0.000000   0.000000   0.370451  -0.000046
    20  H    0.000000   0.000006   0.000000   0.000000   0.364179   0.000001
    21  H    0.000000  -0.000037   0.000000  -0.000001   0.332933   0.000053
               7          8          9         10         11         12
     1  C   -0.042001   0.005571   0.000010   0.007485  -0.041475   0.000112
     2  C    0.492276  -0.000084  -0.003454  -0.000030   0.006499  -0.002337
     3  C   -0.041855   0.001084  -0.000027  -0.000055   0.007899  -0.000017
     4  C   -0.015964  -0.000011   0.000348  -0.000004  -0.000346   0.000473
     5  C    0.002586   0.000000  -0.075588   0.000096  -0.000015   0.383660
     6  C    0.457660  -0.102536   0.000160  -0.082406   0.224553   0.002199
     7  C    4.728112   0.002361   0.001651  -0.002769  -0.039187  -0.016767
     8  O    0.002361   8.067995   0.000000  -0.073666   0.564425   0.000001
     9  O    0.001651   0.000000   7.970013  -0.000004  -0.000004   0.566705
    10  O   -0.002769  -0.073666  -0.000004   8.268933   0.274423  -0.000212
    11  C   -0.039187   0.564425  -0.000004   0.274423   4.485299  -0.000181
    12  C   -0.016767   0.000001   0.566705  -0.000212  -0.000181   4.360695
    13  O    0.189324  -0.000011  -0.068789  -0.019275  -0.003536   0.193976
    14  H   -0.008827   0.003725   0.000220   0.210651  -0.025678  -0.000614
    15  H    0.005156   0.017283   0.000000   0.000416  -0.009220   0.000001
    16  H   -0.037398   0.000000   0.003751   0.000004  -0.000083   0.006117
    17  H    0.000845  -0.000002   0.000000   0.000000  -0.000107   0.000000
    18  H    0.003363   0.000000   0.000016   0.000000   0.000007  -0.000011
    19  H    0.000171   0.000000  -0.000650   0.000238   0.000040  -0.026442
    20  H   -0.000046   0.000000   0.000999   0.000001   0.000000  -0.023436
    21  H   -0.000086   0.000000   0.003425  -0.000017  -0.000015  -0.028156
              13         14         15         16         17         18
     1  C    0.004599  -0.000788   0.367513   0.000757  -0.038042   0.003696
     2  C   -0.056726   0.000916   0.000264   0.353304   0.005626  -0.035230
     3  C   -0.000128  -0.000029  -0.042342   0.004829   0.361441  -0.038960
     4  C    0.004279  -0.000033   0.004360  -0.037964  -0.044986   0.360825
     5  C   -0.092828  -0.000034   0.000000   0.000161   0.000000   0.000000
     6  C   -0.054367   0.005073  -0.046449   0.003726   0.004403   0.000396
     7  C    0.189324  -0.008827   0.005156  -0.037398   0.000845   0.003363
     8  O   -0.000011   0.003725   0.017283   0.000000  -0.000002   0.000000
     9  O   -0.068789   0.000220   0.000000   0.003751   0.000000   0.000016
    10  O   -0.019275   0.210651   0.000416   0.000004   0.000000   0.000000
    11  C   -0.003536  -0.025678  -0.009220  -0.000083  -0.000107   0.000007
    12  C    0.193976  -0.000614   0.000001   0.006117   0.000000  -0.000011
    13  O    8.404557   0.046232  -0.000039  -0.008653   0.000001  -0.000044
    14  H    0.046232   0.331684  -0.000111  -0.000031   0.000000   0.000001
    15  H   -0.000039  -0.000111   0.524913   0.000013  -0.005344  -0.000141
    16  H   -0.008653  -0.000031   0.000013   0.553621  -0.000187  -0.004707
    17  H    0.000001   0.000000  -0.005344  -0.000187   0.580180  -0.004338
    18  H   -0.000044   0.000001  -0.000141  -0.004707  -0.004338   0.557472
    19  H    0.001503   0.000152   0.000000   0.000006   0.000000   0.000000
    20  H    0.003041   0.000009   0.000000   0.000010   0.000000   0.000000
    21  H    0.003525   0.000657   0.000000  -0.000034   0.000000   0.000000
              19         20         21
     1  C   -0.000002   0.000000   0.000000
     2  C    0.000023   0.000006  -0.000037
     3  C    0.000000   0.000000   0.000000
     4  C    0.000000   0.000000  -0.000001
     5  C    0.370451   0.364179   0.332933
     6  C   -0.000046   0.000001   0.000053
     7  C    0.000171  -0.000046  -0.000086
     8  O    0.000000   0.000000   0.000000
     9  O   -0.000650   0.000999   0.003425
    10  O    0.000238   0.000001  -0.000017
    11  C    0.000040   0.000000  -0.000015
    12  C   -0.026442  -0.023436  -0.028156
    13  O    0.001503   0.003041   0.003525
    14  H    0.000152   0.000009   0.000657
    15  H    0.000000   0.000000   0.000000
    16  H    0.000006   0.000010  -0.000034
    17  H    0.000000   0.000000   0.000000
    18  H    0.000000   0.000000   0.000000
    19  H    0.486488  -0.021356  -0.019451
    20  H   -0.021356   0.500422  -0.019531
    21  H   -0.019451  -0.019531   0.559755
 Mulliken charges:
               1
     1  C   -0.175642
     2  C   -0.167542
     3  C   -0.144484
     4  C   -0.125490
     5  C   -0.510571
     6  C    0.023737
     7  C    0.321394
     8  O   -0.486137
     9  O   -0.398782
    10  O   -0.583811
    11  C    0.556701
    12  C    0.584234
    13  O   -0.546642
    14  H    0.436824
    15  H    0.183727
    16  H    0.162760
    17  H    0.140509
    18  H    0.157657
    19  H    0.208876
    20  H    0.195700
    21  H    0.166981
 Sum of Mulliken charges =   0.00000
 Mulliken charges with hydrogens summed into heavy atoms:
               1
     1  C    0.008085
     2  C   -0.004782
     3  C   -0.003975
     4  C    0.032167
     5  C    0.060986
     6  C    0.023737
     7  C    0.321394
     8  O   -0.486137
     9  O   -0.398782
    10  O   -0.146987
    11  C    0.556701
    12  C    0.584234
    13  O   -0.546642
 Electronic spatial extent (au):  <R**2>=           2428.8620
 Charge=              0.0000 electrons
 Dipole moment (field-independent basis, Debye):
    X=             -3.1718    Y=              2.8594    Z=             -1.0622  Tot=              4.4005
 Quadrupole moment (field-independent basis, Debye-Ang):
   XX=            -72.8909   YY=            -79.7948   ZZ=            -73.3574
   XY=             17.4540   XZ=              1.4516   YZ=             -1.4285
 Traceless Quadrupole moment (field-independent basis, Debye-Ang):
   XX=              2.4568   YY=             -4.4471   ZZ=              1.9903
   XY=             17.4540   XZ=              1.4516   YZ=             -1.4285
 Octapole moment (field-independent basis, Debye-Ang**2):
  XXX=            -34.6200  YYY=             38.2432  ZZZ=              0.7005  XYY=            -13.7438
  XXY=              2.0015  XXZ=             -3.5693  XZZ=             -8.0715  YZZ=             -9.7080
  YYZ=             -3.8002  XYZ=              9.1317
 Hexadecapole moment (field-independent basis, Debye-Ang**3):
 XXXX=          -1744.8561 YYYY=          -1178.0993 ZZZZ=           -102.8669 XXXY=            119.5015
 XXXZ=              5.2812 YYYX=             59.2506 YYYZ=            -10.0837 ZZZX=             -0.9192
 ZZZY=              2.9467 XXYY=           -542.6638 XXZZ=           -317.9412 YYZZ=           -217.7332
 XXYZ=              2.0088 YYXZ=             -1.1532 ZZXY=            -10.9610
 N-N= 7.734042392635D+02 E-N=-3.060699662554D+03  KE= 6.428723457291D+02
 No NMR shielding tensors so no spin-rotation constants.
 Leave Link  601 at Mon Aug  7 12:57:15 2023, MaxMem=   458752000 cpu:         0.1
 (Enter /opt/apps/apps/binapps/gaussian/g09d01_em64t/g09/l602.exe)
 FitSet:  NAtFit=    21 NAtPot=    21 NAtFrz=     0 MDM=    25 TotChg=   0.00000
 Merz-Kollman atomic radii used.

 **********************************************************************

            Electrostatic Properties Using The SCF Density

 **********************************************************************

       Atomic Center    1 is at   2.304955  0.572320  0.150856
       Atomic Center    2 is at  -0.111891  1.772351 -0.307605
       Atomic Center    3 is at   2.183148  1.984938  0.217795
       Atomic Center    4 is at   0.978886  2.625121 -0.202469
       Atomic Center    5 is at  -3.359871 -1.084551  0.170791
       Atomic Center    6 is at   1.233290 -0.213965 -0.040388
       Atomic Center    7 is at  -0.043110  0.402158 -0.128704
       Atomic Center    8 is at   2.553374 -2.165590  0.323559
       Atomic Center    9 is at  -2.801744  1.182930  0.430642
       Atomic Center   10 is at   0.413741 -2.456779 -0.362866
       Atomic Center   11 is at   1.450832 -1.665428 -0.001756
       Atomic Center   12 is at  -2.482396  0.118748 -0.019155
       Atomic Center   13 is at  -1.182186 -0.292753 -0.242761
       Atomic Center   14 is at  -0.261215 -1.770044 -0.494755
       Atomic Center   15 is at   3.239157  0.171663  0.460165
       Atomic Center   16 is at  -1.069385  2.182550 -0.739071
       Atomic Center   17 is at   3.050921  2.604041  0.343982
       Atomic Center   18 is at   0.933785  3.732130 -0.289964
       Atomic Center   19 is at  -2.954843 -1.748480  0.942982
       Atomic Center   20 is at  -4.413667 -0.798448  0.415293
       Atomic Center   21 is at  -3.313291 -1.586027 -0.863417
    1043 points will be used for fitting atomic charges
 Fitting point charges to electrostatic potential
 Charges from ESP fit, RMS=   0.00117 RRMS=   0.06102:
 ESP charges:
               1
     1  C   -0.010954
     2  C   -0.231613
     3  C   -0.166724
     4  C   -0.089226
     5  C   -0.440560
     6  C   -0.304990
     7  C    0.396684
     8  O   -0.487439
     9  O   -0.442051
    10  O   -0.521844
    11  C    0.677843
    12  C    0.698515
    13  O   -0.370812
    14  H    0.348322
    15  H    0.123998
    16  H    0.130345
    17  H    0.128704
    18  H    0.147803
    19  H    0.170666
    20  H    0.141074
    21  H    0.102260
 Sum of ESP charges =   0.00000
 ESP charges with hydrogens summed into heavy atoms:
               1
     1  C    0.113045
     2  C   -0.101269
     3  C   -0.038020
     4  C    0.058578
     5  C   -0.026561
     6  C   -0.304990
     7  C    0.396684
     8  O   -0.487439
     9  O   -0.442051
    10  O   -0.173522
    11  C    0.677843
    12  C    0.698515
    13  O   -0.370812
 Charge=   0.00000 Dipole=    -3.1781     2.8856    -1.0801 Tot=     4.4265
 -----------------------------------------------------------------

              Electrostatic Properties (Atomic Units)

 -----------------------------------------------------------------
    Center     Electric         -------- Electric Field --------
               Potential          X             Y             Z
 -----------------------------------------------------------------
    1 Atom    -14.723254
    2 Atom    -14.715332
    3 Atom    -14.718102
    4 Atom    -14.705639
    5 Atom    -14.692812
    6 Atom    -14.705768
    7 Atom    -14.637432
    8 Atom    -22.342927
    9 Atom    -22.291133
   10 Atom    -22.272615
   11 Atom    -14.606019
   12 Atom    -14.566313
   13 Atom    -22.209217
   14 Atom     -0.953944
   15 Atom     -1.095652
   16 Atom     -1.084364
   17 Atom     -1.096184
   18 Atom     -1.074535
   19 Atom     -1.062179
   20 Atom     -1.072036
   21 Atom     -1.066211
 -----------------------------------------------------------------
 Leave Link  602 at Mon Aug  7 12:57:15 2023, MaxMem=   458752000 cpu:         0.1
 (Enter /opt/apps/apps/binapps/gaussian/g09d01_em64t/g09/l701.exe)
 Compute integral first derivatives.
 ... and contract with generalized density number  0.
 R6Disp: Adding Grimme-D3 dispersion energy 1st derivatives to the gradient.
 Leave Link  701 at Mon Aug  7 12:57:15 2023, MaxMem=   458752000 cpu:         0.2
 (Enter /opt/apps/apps/binapps/gaussian/g09d01_em64t/g09/l702.exe)
 L702 exits ... SP integral derivatives will be done elsewhere.
 Leave Link  702 at Mon Aug  7 12:57:15 2023, MaxMem=   458752000 cpu:         0.0
 (Enter /opt/apps/apps/binapps/gaussian/g09d01_em64t/g09/l703.exe)
 Compute integral first derivatives, UseDBF=F ICtDFT=           0.
 Integral derivatives from FoFJK, PRISM(SPDF).
 Calling FoFJK, ICntrl=      2127 FMM=F ISym2X=0 I1Cent= 0 IOpClX= 0 NMat=1 NMatS=1 NMatT=0.
 FoFJK:  IHMeth= 1 ICntrl=    2127 DoSepK=F KAlg= 0 I1Cent=   0 FoldK=F
 IRaf=         0 NMat=   1 IRICut=       1 DoRegI=T DoRafI=F ISym2E= 0.
 FoFCou: FMM=F IPFlag=           0 FMFlag=      100000 FMFlg1=         800
         NFxFlg=           0 DoJE=F BraDBF=F KetDBF=F FulRan=T
         wScrn=  0.000000 ICntrl=    2127 IOpCl=  0 I1Cent=           0 NGrid=           0
         NMat0=    1 NMatS0=      1 NMatT0=    0 NMatD0=    1 NMtDS0=    0 NMtDT0=    0
 Symmetry not used in FoFCou.
 Leave Link  703 at Mon Aug  7 12:57:44 2023, MaxMem=   458752000 cpu:        29.1
 (Enter /opt/apps/apps/binapps/gaussian/g09d01_em64t/g09/l716.exe)
 Dipole        =-1.24787226D+00 1.12495757D+00-4.17909974D-01
 ***** Axes restored to original set *****
 -------------------------------------------------------------------
 Center     Atomic                   Forces (Hartrees/Bohr)
 Number     Number              X              Y              Z
 -------------------------------------------------------------------
      1        6           0.008910714    0.034355106    0.070717219
      2        6          -0.023590848    0.052629769   -0.007984492
      3        6          -0.002194409    0.023301587   -0.024370782
      4        6           0.017482068   -0.033715264    0.016865839
      5        6           0.009442450    0.023625611   -0.049933766
      6        6          -0.046984364   -0.011701702   -0.028033195
      7        6           0.029080273    0.032893570    0.026971052
      8        8          -0.042470137    0.036715628   -0.012838696
      9        8           0.008935809    0.027222079    0.003664819
     10        8           0.004109136    0.009679271    0.017566584
     11        6           0.054977946   -0.063215101   -0.001466505
     12        6          -0.031195831   -0.046479826    0.039959263
     13        8          -0.007043578   -0.015161523   -0.045456507
     14        1          -0.016156965   -0.004108083   -0.023488832
     15        1           0.015081478   -0.010605137   -0.007608281
     16        1           0.012567924   -0.021519914    0.014793956
     17        1           0.006792128   -0.004781422    0.008193847
     18        1          -0.001343714   -0.012016814   -0.014549228
     19        1           0.003250413    0.002933209   -0.001703671
     20        1           0.019853243   -0.001301909    0.001468345
     21        1          -0.019503737   -0.018749134    0.017233030
 -------------------------------------------------------------------
 Cartesian Forces:  Max     0.070717219 RMS     0.026464348
 Z-matrix is all fixed cartesians, so copy forces.
 Leave Link  716 at Mon Aug  7 12:57:44 2023, MaxMem=   458752000 cpu:         0.0
 (Enter /opt/apps/apps/binapps/gaussian/g09d01_em64t/g09/l103.exe)

 GradGradGradGradGradGradGradGradGradGradGradGradGradGradGradGradGradGrad
 Berny optimization.
 Search for a local minimum.
 Step number   1 out of a maximum of    2
 All quantities printed in internal units (Hartrees-Bohrs-Radians)
 Second derivative matrix not updated -- first step.
 ITU=  0
     Eigenvalues ---    0.00082   0.00160   0.00184   0.00303   0.00476
     Eigenvalues ---    0.00907   0.00945   0.01394   0.01923   0.02314
     Eigenvalues ---    0.02781   0.03278   0.03625   0.04034   0.05310
     Eigenvalues ---    0.05604   0.06447   0.06694   0.07119   0.07499
     Eigenvalues ---    0.08340   0.08798   0.10165   0.12321   0.12552
     Eigenvalues ---    0.13179   0.13599   0.14488   0.15818   0.18761
     Eigenvalues ---    0.20269   0.21833   0.23489   0.30543   0.31181
     Eigenvalues ---    0.31758   0.37288   0.43546   0.47253   0.48972
     Eigenvalues ---    0.61433   0.67564   0.74347   0.81685   0.89154
     Eigenvalues ---    0.95231   1.07510   1.09193   1.12994   1.21084
     Eigenvalues ---    1.32812   1.40582   1.57019   1.57832   1.80806
     Eigenvalues ---    2.01167   2.39999
 Quadratic step=2.841D+00 exceeds max=3.000D-01 adjusted using Lamda=-2.075D-01.
 Angle between NR and scaled steps=  67.61 degrees.
 Angle between quadratic step and forces=  38.15 degrees.
 Linear search not attempted -- first point.
 TrRot=  0.000000  0.000000  0.000000  0.000000  0.000000  0.000000
 MatCor failed.
 Variable       Old X    -DE/DX   Delta X   Delta X   Delta X     New X
                                 (Linear)    (Quad)   (Total)
    X1       26.76619   0.00891   0.00000  -0.00983  -0.00983  26.75636
    Y1       22.98911   0.03436   0.00000   0.01595   0.01595  23.00506
    Z1       25.44507   0.07072   0.00000   0.07520   0.07520  25.52027
    X2       22.70398  -0.02359   0.00000  -0.00824  -0.00824  22.69575
    Y2       26.13042   0.05263   0.00000   0.06719   0.06719  26.19761
    Z2       24.82628  -0.00798   0.00000  -0.00462  -0.00462  24.82166
    X3       26.32287  -0.00219   0.00000   0.02833   0.02833  26.35120
    Y3       24.98478   0.02330   0.00000   0.04055   0.04055  25.02533
    Z3       27.18166  -0.02437   0.00000  -0.00961  -0.00961  27.17205
    X4       24.42799   0.01748   0.00000   0.00911   0.00911  24.43710
    Y4       26.83556  -0.03372   0.00000  -0.03814  -0.03814  26.79742
    Z4       26.67448   0.01687   0.00000   0.02155   0.02155  26.69602
    X5       17.05586   0.00944   0.00000   0.00445   0.00445  17.06032
    Y5       22.64666   0.02363   0.00000   0.01189   0.01189  22.65854
    Z5       19.96845  -0.04993   0.00000  -0.06486  -0.06486  19.90359
    X6       25.12747  -0.04698   0.00000  -0.03703  -0.03703  25.09044
    Y6       22.47348  -0.01170   0.00000  -0.01397  -0.01397  22.45952
    Z6       23.57735  -0.02803   0.00000   0.01111   0.01111  23.58846
    X7       22.87639   0.02908   0.00000   0.01653   0.01653  22.89292
    Y7       23.92685   0.03289   0.00000   0.06469   0.06469  23.99155
    Z7       23.42980   0.02697   0.00000  -0.01332  -0.01332  23.41647
    X8       27.43463  -0.04247   0.00000  -0.01676  -0.01676  27.41787
    Y8       18.76214   0.03672   0.00000   0.01082   0.01082  18.77296
    Z8       22.48161  -0.01284   0.00000  -0.02318  -0.02318  22.45843
    X9       17.55582   0.00894   0.00000   0.02478   0.02478  17.58060
    Y9       25.39711   0.02722   0.00000   0.06737   0.06737  25.46448
    Z9       23.41795   0.00366   0.00000   0.01213   0.01213  23.43009
   X10       24.21091   0.00411   0.00000   0.00690   0.00690  24.21781
   Y10       19.92702   0.00968   0.00000   0.00462   0.00462  19.93164
   Z10       19.91558   0.01757   0.00000   0.01126   0.01126  19.92684
   X11       25.66919   0.05498   0.00000   0.01962   0.01962  25.68881
   Y11       20.26341  -0.06322   0.00000  -0.04115  -0.04115  20.22226
   Z11       21.98997  -0.00147   0.00000  -0.00369  -0.00369  21.98629
   X12       18.56843  -0.03120   0.00000  -0.04701  -0.04701  18.52142
   Y12       24.27898  -0.04648   0.00000  -0.13184  -0.13184  24.14713
   Z12       21.72820   0.03996   0.00000   0.09445   0.09445  21.82265
   X13       21.05367  -0.00704   0.00000   0.00340   0.00340  21.05707
   Y13       23.47658  -0.01516   0.00000  -0.02024  -0.02024  23.45634
   Z13       21.73294  -0.04546   0.00000  -0.05257  -0.05257  21.68037
   X14       23.03355  -0.01616   0.00000  -0.05363  -0.05363  22.97992
   Y14       21.31404  -0.00411   0.00000  -0.02206  -0.02206  21.29198
   Z14       20.16685  -0.02349   0.00000  -0.08746  -0.08746  20.07940
   X15       28.23543   0.01508   0.00000   0.03236   0.03236  28.26779
   Y15       21.71085  -0.01061   0.00000  -0.01149  -0.01149  21.69937
   Z15       25.93382  -0.00761   0.00000  -0.01171  -0.01171  25.92211
   X16       21.27854   0.01257   0.00000   0.00040   0.00040  21.27894
   Y16       27.57405  -0.02152   0.00000  -0.01427  -0.01427  27.55978
   Z16       24.17540   0.01479   0.00000   0.04181   0.04181  24.21721
   X17       27.67223   0.00679   0.00000   0.02361   0.02361  27.69584
   Y17       25.41065  -0.00478   0.00000  -0.00716  -0.00716  25.40348
   Z17       28.63514   0.00819   0.00000   0.02058   0.02058  28.65573
   X18       24.26695  -0.00134   0.00000  -0.00027  -0.00027  24.26668
   Y18       28.54520  -0.01202   0.00000  -0.03898  -0.03898  28.50622
   Z18       27.88362  -0.01455   0.00000  -0.02621  -0.02621  27.85741
   X19       17.30835   0.00325   0.00000   0.00105   0.00105  17.30940
   Y19       20.64013   0.00293   0.00000   0.01389   0.01389  20.65402
   Z19       20.41500  -0.00170   0.00000  -0.03269  -0.03269  20.38231
   X20       15.00333   0.01985   0.00000   0.04135   0.04135  15.04469
   Y20       23.15469  -0.00130   0.00000   0.00687   0.00687  23.16156
   Z20       19.98934   0.00147   0.00000  -0.01008  -0.01008  19.97926
   X21       17.92865  -0.01950   0.00000  -0.03775  -0.03775  17.89090
   Y21       23.12136  -0.01875   0.00000  -0.04293  -0.04293  23.07843
   Z21       18.03499   0.01723   0.00000  -0.00634  -0.00634  18.02865
         Item               Value     Threshold  Converged?
 Maximum Force            0.070717     0.000450     NO 
 RMS     Force            0.026464     0.000300     NO 
 Maximum Displacement     0.131845     0.001800     NO 
 RMS     Displacement     0.037800     0.001200     NO 
 Predicted change in Energy=-3.411975D-02
 GradGradGradGradGradGradGradGradGradGradGradGradGradGradGradGradGradGrad

 Leave Link  103 at Mon Aug  7 12:57:44 2023, MaxMem=   458752000 cpu:         0.0
 (Enter /opt/apps/apps/binapps/gaussian/g09d01_em64t/g09/l9999.exe)
 1\1\GINC-NODE690\Force\RB3LYP\6-31G(d)\C9H8O4\MBDX6CW3\07-Aug-2023\0\\
 #p b3lyp/6-31g* pop=mk empiricaldispersion=gd3 int(ultrafine) force\\a
 spirin\\0,1\C,14.16405916,12.16531396,13.46494913\C,12.01442957,13.827
 62432,13.13750148\C,13.92946362,13.22137713,14.38391685\C,12.92673349,
 14.20076609,14.11552548\C,9.02557373,11.98409438,10.56684613\C,13.2968
 8549,11.89245462,12.47659564\C,12.10566401,12.66154528,12.39851475\O,1
 4.51777935,9.92849946,11.8967545\O,9.29014087,13.43957186,12.39224792\
 O,12.81185985,10.54492712,10.5388689\C,13.58355284,10.72293401,11.6365
 9334\C,9.8259896,12.84788132,11.49806976\O,11.14112377,12.42327094,11.
 50057673\H,12.18883157,11.27890348,10.67183852\H,14.94154692,11.488889
 46,13.7235868\H,11.2601161,14.59156036,12.79306889\H,14.64351296,13.44
 673514,15.15306473\H,12.84151793,15.10546923,14.75537658\H,9.15918469,
 10.92228651,10.80315232\H,7.93942273,12.25293636,10.57790279\H,9.48743
 105,12.23529816,9.54370499\\Version=ES64L-G09RevD.01\State=1-A\HF=-648
 .657637\RMSD=6.906e-09\RMSF=2.646e-02\Dipole=-1.0772508,1.3549395,0.03
 21445\Quadrupole=-0.6913334,-3.8155807,4.506914,9.2073016,8.6515223,-1
 .2716778\PG=C01 [X(C9H8O4)]\\@


 GROWING OLD ISN'T SO BAD -- WHEN YOU CONSIDER THE ALTERNATIVE.

                     -- MAURICE CHEVALIER
 Job cpu time:       0 days  0 hours  2 minutes 30.2 seconds.
 File lengths (MBytes):  RWF=     20 Int=      0 D2E=      0 Chk=      3 Scr=      1
 Normal termination of Gaussian 09 at Mon Aug  7 12:57:44 2023.
