 Entering Gaussian System, Link 0=/opt/apps/apps/binapps/gaussian/g09d01_em64t/g09/g09
 Initial command:
 /opt/apps/apps/binapps/gaussian/g09d01_em64t/g09/l1.exe "/net/scratch2/mbdx6cw3/aspirin/300K-meta/dft/qm_input/gau_temp_14/Gau-14029.inp" -scrdir="/net/scratch2/mbdx6cw3/aspirin/300K-meta/dft/qm_input/gau_temp_14/"
 Entering Link 1 = /opt/apps/apps/binapps/gaussian/g09d01_em64t/g09/l1.exe PID=     14031.
  
 Copyright (c) 1988,1990,1992,1993,1995,1998,2003,2009,2013,
            Gaussian, Inc.  All Rights Reserved.
  
 This is part of the Gaussian(R) 09 program.  It is based on
 the Gaussian(R) 03 system (copyright 2003, Gaussian, Inc.),
 the Gaussian(R) 98 system (copyright 1998, Gaussian, Inc.),
 the Gaussian(R) 94 system (copyright 1995, Gaussian, Inc.),
 the Gaussian 92(TM) system (copyright 1992, Gaussian, Inc.),
 the Gaussian 90(TM) system (copyright 1990, Gaussian, Inc.),
 the Gaussian 88(TM) system (copyright 1988, Gaussian, Inc.),
 the Gaussian 86(TM) system (copyright 1986, Carnegie Mellon
 University), and the Gaussian 82(TM) system (copyright 1983,
 Carnegie Mellon University). Gaussian is a federally registered
 trademark of Gaussian, Inc.
  
 This software contains proprietary and confidential information,
 including trade secrets, belonging to Gaussian, Inc.
  
 This software is provided under written license and may be
 used, copied, transmitted, or stored only in accord with that
 written license.
  
 The following legend is applicable only to US Government
 contracts under FAR:
  
                    RESTRICTED RIGHTS LEGEND
  
 Use, reproduction and disclosure by the US Government is
 subject to restrictions as set forth in subparagraphs (a)
 and (c) of the Commercial Computer Software - Restricted
 Rights clause in FAR 52.227-19.
  
 Gaussian, Inc.
 340 Quinnipiac St., Bldg. 40, Wallingford CT 06492
  
  
 ---------------------------------------------------------------
 Warning -- This program may not be used in any manner that
 competes with the business of Gaussian, Inc. or will provide
 assistance to any competitor of Gaussian, Inc.  The licensee
 of this program is prohibited from giving any competitor of
 Gaussian, Inc. access to this program.  By using this program,
 the user acknowledges that Gaussian, Inc. is engaged in the
 business of creating and licensing software in the field of
 computational chemistry and represents and warrants to the
 licensee that it is not a competitor of Gaussian, Inc. and that
 it will not use this program in any manner prohibited above.
 ---------------------------------------------------------------
  

 Cite this work as:
 Gaussian 09, Revision D.01,
 M. J. Frisch, G. W. Trucks, H. B. Schlegel, G. E. Scuseria, 
 M. A. Robb, J. R. Cheeseman, G. Scalmani, V. Barone, B. Mennucci, 
 G. A. Petersson, H. Nakatsuji, M. Caricato, X. Li, H. P. Hratchian, 
 A. F. Izmaylov, J. Bloino, G. Zheng, J. L. Sonnenberg, M. Hada, 
 M. Ehara, K. Toyota, R. Fukuda, J. Hasegawa, M. Ishida, T. Nakajima, 
 Y. Honda, O. Kitao, H. Nakai, T. Vreven, J. A. Montgomery, Jr., 
 J. E. Peralta, F. Ogliaro, M. Bearpark, J. J. Heyd, E. Brothers, 
 K. N. Kudin, V. N. Staroverov, T. Keith, R. Kobayashi, J. Normand, 
 K. Raghavachari, A. Rendell, J. C. Burant, S. S. Iyengar, J. Tomasi, 
 M. Cossi, N. Rega, J. M. Millam, M. Klene, J. E. Knox, J. B. Cross, 
 V. Bakken, C. Adamo, J. Jaramillo, R. Gomperts, R. E. Stratmann, 
 O. Yazyev, A. J. Austin, R. Cammi, C. Pomelli, J. W. Ochterski, 
 R. L. Martin, K. Morokuma, V. G. Zakrzewski, G. A. Voth, 
 P. Salvador, J. J. Dannenberg, S. Dapprich, A. D. Daniels, 
 O. Farkas, J. B. Foresman, J. V. Ortiz, J. Cioslowski, 
 and D. J. Fox, Gaussian, Inc., Wallingford CT, 2013.
 
 ******************************************
 Gaussian 09:  ES64L-G09RevD.01 24-Apr-2013
                 7-Aug-2023 
 ******************************************
 %chk=./gau_temp_14/mol_chk.chk
 %mem=3500MB
 -------------------------------------------------------------------
 #p b3lyp/6-31g* pop=mk empiricaldispersion=gd3 int(ultrafine) force
 -------------------------------------------------------------------
 1/10=7,30=1,38=1/1,3;
 2/12=2,17=6,18=5,40=1/2;
 3/5=1,6=6,7=1,11=2,16=1,25=1,30=1,71=1,74=-5,75=-5,124=31/1,2,3;
 4//1;
 5/5=2,38=5/2;
 6/7=2,8=2,9=2,10=2,15=8,20=1,28=1/1,2;
 7/29=1/1,2,3,16;
 1/10=7,30=1/3;
 99//99;
 Leave Link    1 at Mon Aug  7 13:05:06 2023, MaxMem=   458752000 cpu:         0.0
 (Enter /opt/apps/apps/binapps/gaussian/g09d01_em64t/g09/l101.exe)
 -------
 aspirin
 -------
 Symbolic Z-matrix:
 Charge =  0 Multiplicity = 1
 C                     14.33429   13.11053   11.77758 
 C                     11.74277   14.05025   11.6212 
 C                     14.01179   14.30483   11.051 
 C                     12.71432   14.81056   10.95954 
 C                     9.10798   10.70101   12.92216 
 C                     13.32565   12.38913   12.41109 
 C                     11.97509   12.82179   12.21501 
 O                     14.86998   10.63403   12.89424 
 O                     9.27282   12.22648   11.17482 
 O                     12.83875   10.39572   13.71893 
 C                     13.72334   11.03011   12.99338 
 C                     9.65237   11.90408   12.2774 
 O                     10.98866   11.97307   12.69799 
 H                     12.14233   11.02434   13.63781 
 H                     15.34258   12.69001   11.67798 
 H                     10.67825   14.24537   11.55323 
 H                     14.83788   14.93474   10.57826 
 H                     12.54519   15.705    10.33324 
 H                     9.76903   10.37217   13.68299 
 H                     8.13375   10.91745   13.32828 
 H                     9.08341   9.95533   12.17357 
 
 NAtoms=     21 NQM=       21 NQMF=       0 NMMI=      0 NMMIF=      0
                NMic=       0 NMicF=      0.
                    Isotopes and Nuclear Properties:
 (Nuclear quadrupole moments (NQMom) in fm**2, nuclear magnetic moments (NMagM)
  in nuclear magnetons)

  Atom         1           2           3           4           5           6           7           8           9          10
 IAtWgt=          12          12          12          12          12          12          12          16          16          16
 AtmWgt=  12.0000000  12.0000000  12.0000000  12.0000000  12.0000000  12.0000000  12.0000000  15.9949146  15.9949146  15.9949146
 NucSpn=           0           0           0           0           0           0           0           0           0           0
 AtZEff=   0.0000000   0.0000000   0.0000000   0.0000000   0.0000000   0.0000000   0.0000000   0.0000000   0.0000000   0.0000000
 NQMom=    0.0000000   0.0000000   0.0000000   0.0000000   0.0000000   0.0000000   0.0000000   0.0000000   0.0000000   0.0000000
 NMagM=    0.0000000   0.0000000   0.0000000   0.0000000   0.0000000   0.0000000   0.0000000   0.0000000   0.0000000   0.0000000
 AtZNuc=   6.0000000   6.0000000   6.0000000   6.0000000   6.0000000   6.0000000   6.0000000   8.0000000   8.0000000   8.0000000

  Atom        11          12          13          14          15          16          17          18          19          20
 IAtWgt=          12          12          16           1           1           1           1           1           1           1
 AtmWgt=  12.0000000  12.0000000  15.9949146   1.0078250   1.0078250   1.0078250   1.0078250   1.0078250   1.0078250   1.0078250
 NucSpn=           0           0           0           1           1           1           1           1           1           1
 AtZEff=   0.0000000   0.0000000   0.0000000   0.0000000   0.0000000   0.0000000   0.0000000   0.0000000   0.0000000   0.0000000
 NQMom=    0.0000000   0.0000000   0.0000000   0.0000000   0.0000000   0.0000000   0.0000000   0.0000000   0.0000000   0.0000000
 NMagM=    0.0000000   0.0000000   0.0000000   2.7928460   2.7928460   2.7928460   2.7928460   2.7928460   2.7928460   2.7928460
 AtZNuc=   6.0000000   6.0000000   8.0000000   1.0000000   1.0000000   1.0000000   1.0000000   1.0000000   1.0000000   1.0000000

  Atom        21
 IAtWgt=           1
 AtmWgt=   1.0078250
 NucSpn=           1
 AtZEff=   0.0000000
 NQMom=    0.0000000
 NMagM=    2.7928460
 AtZNuc=   1.0000000
 Leave Link  101 at Mon Aug  7 13:05:07 2023, MaxMem=   458752000 cpu:         0.1
 (Enter /opt/apps/apps/binapps/gaussian/g09d01_em64t/g09/l103.exe)

 GradGradGradGradGradGradGradGradGradGradGradGradGradGradGradGradGradGrad
 Berny optimization.
 Initialization pass.
 Trust Radius=3.00D-01 FncErr=1.00D-07 GrdErr=1.00D-07
 Number of steps in this run=      2 maximum allowed number of steps=      2.
 GradGradGradGradGradGradGradGradGradGradGradGradGradGradGradGradGradGrad

 Leave Link  103 at Mon Aug  7 13:05:07 2023, MaxMem=   458752000 cpu:         0.0
 (Enter /opt/apps/apps/binapps/gaussian/g09d01_em64t/g09/l202.exe)
                          Input orientation:                          
 ---------------------------------------------------------------------
 Center     Atomic      Atomic             Coordinates (Angstroms)
 Number     Number       Type             X           Y           Z
 ---------------------------------------------------------------------
      1          6           0       14.334291   13.110528   11.777585
      2          6           0       11.742768   14.050255   11.621205
      3          6           0       14.011786   14.304825   11.051002
      4          6           0       12.714324   14.810565   10.959538
      5          6           0        9.107979   10.701008   12.922163
      6          6           0       13.325647   12.389133   12.411085
      7          6           0       11.975086   12.821790   12.215014
      8          8           0       14.869978   10.634030   12.894238
      9          8           0        9.272820   12.226477   11.174817
     10          8           0       12.838755   10.395721   13.718928
     11          6           0       13.723341   11.030111   12.993382
     12          6           0        9.652373   11.904078   12.277404
     13          8           0       10.988659   11.973075   12.697989
     14          1           0       12.142334   11.024336   13.637807
     15          1           0       15.342580   12.690012   11.677984
     16          1           0       10.678250   14.245373   11.553233
     17          1           0       14.837877   14.934742   10.578258
     18          1           0       12.545192   15.705000   10.333235
     19          1           0        9.769027   10.372170   13.682995
     20          1           0        8.133750   10.917453   13.328280
     21          1           0        9.083413    9.955330   12.173569
 ---------------------------------------------------------------------
                    Distance matrix (angstroms):
                    1          2          3          4          5
     1  C    0.000000
     2  C    2.761074   0.000000
     3  C    1.434670   2.353376   0.000000
     4  C    2.486688   1.399926   1.395545   0.000000
     5  C    5.867724   4.455565   6.366794   5.809137   0.000000
     6  C    1.392515   2.426673   2.447548   2.888604   4.571618
     7  C    2.416726   1.384090   2.775331   2.465343   3.635668
     8  O    2.768920   4.803192   4.196278   5.082652   5.762456
     9  O    5.173332   3.102591   5.176162   4.309037   2.325391
    10  O    3.657270   4.353992   4.875954   5.207740   3.827104
    11  C    2.485872   3.863523   3.818350   4.409814   4.627629
    12  C    4.860627   3.066990   5.125635   4.422667   1.469509
    13  O    3.651603   2.458215   4.157995   3.748530   2.281527
    14  H    3.552084   3.658214   4.576901   4.672882   3.134326
    15  H    1.096996   3.848653   2.184431   3.452627   6.661409
    16  H    3.834690   1.084385   3.371681   2.194883   4.111234
    17  H    2.240478   3.383748   1.141362   2.161081   7.500008
    18  H    3.466743   2.245202   2.150948   1.104933   6.599767
    19  H    5.654276   4.655635   6.355641   5.982586   1.060181
    20  H    6.757289   5.074798   7.156228   6.461340   1.077452
    21  H    6.138713   4.913826   6.668367   6.183097   1.056897
                    6          7          8          9         10
     6  C    0.000000
     7  C    1.431661   0.000000
     8  O    2.387212   3.691618   0.000000
     9  O    4.240309   2.956120   6.067988   0.000000
    10  O    2.433353   2.982196   2.205170   4.747637   0.000000
    11  C    1.531068   2.621520   1.217163   4.954352   1.308190
    12  C    3.707572   2.498216   5.405267   1.209835   3.808695
    13  O    2.391011   1.388028   4.110498   2.308325   2.636895
    14  H    2.183518   2.298512   2.853993   3.968069   0.941668
    15  H    2.167022   3.412592   2.435096   6.108193   3.962116
    16  H    3.345183   2.036253   5.693038   2.488850   4.917096
    17  H    3.482272   3.916517   4.884764   6.217752   5.870520
    18  H    3.990181   3.489844   6.138249   4.849413   6.303772
    19  H    4.281990   3.608643   5.168212   3.158422   3.070029
    20  H    5.473837   4.429642   6.756145   2.765579   4.749935
    21  H    4.896566   4.071864   5.870634   2.488270   4.084687
                   11         12         13         14         15
    11  C    0.000000
    12  C    4.224834   0.000000
    13  O    2.907736   1.402609   0.000000
    14  H    1.707308   2.970614   1.764747   0.000000
    15  H    2.665986   5.775418   4.528912   4.105723   0.000000
    16  H    4.656664   2.656786   2.563232   4.106589   4.918403
    17  H    4.724527   6.241913   5.299171   5.649608   2.550085
    18  H    5.506269   5.157054   4.684242   5.743789   4.327110
    19  H    4.067561   2.082314   2.240677   2.461696   6.360579
    20  H    5.600748   2.093797   3.108393   4.021937   7.604780
    21  H    4.832823   2.032760   2.824229   3.555807   6.848450
                   16         17         18         19         20
    16  H    0.000000
    17  H    4.327621   0.000000
    18  H    2.665404   2.430995   0.000000
    19  H    4.512679   7.493310   6.882373   0.000000
    20  H    4.549761   8.285322   7.166012   1.759911   0.000000
    21  H    4.618743   7.775179   6.959127   1.709441   1.777891
                   21
    21  H    0.000000
 Stoichiometry    C9H8O4
 Framework group  C1[X(C9H8O4)]
 Deg. of freedom    57
 Full point group                 C1      NOp   1
 Largest Abelian subgroup         C1      NOp   1
 Largest concise Abelian subgroup C1      NOp   1
                         Standard orientation:                         
 ---------------------------------------------------------------------
 Center     Atomic      Atomic             Coordinates (Angstroms)
 Number     Number       Type             X           Y           Z
 ---------------------------------------------------------------------
      1          6           0        2.393668   -0.261436    0.118830
      2          6           0        0.214847   -1.880298   -0.386698
      3          6           0        2.503113   -1.691884    0.129747
      4          6           0        1.423784   -2.537672   -0.129550
      5          6           0       -3.391572    0.709704   -0.015620
      6          6           0        1.163419    0.339168   -0.135846
      7          6           0        0.022188   -0.514505   -0.271816
      8          8           0        2.077026    2.472295    0.424398
      9          8           0       -2.625001   -1.349857    0.744658
     10          8           0       -0.004257    2.467397   -0.304305
     11          6           0        1.091295    1.855281    0.065073
     12          6           0       -2.462040   -0.428445   -0.022247
     13          8           0       -1.209692    0.122315   -0.331433
     14          1           0       -0.476614    1.705991   -0.593922
     15          1           0        3.240623    0.333962    0.481552
     16          1           0       -0.735348   -2.391268   -0.495925
     17          1           0        3.517705   -2.192920    0.278995
     18          1           0        1.582464   -3.627922   -0.045573
     19          1           0       -2.930096    1.551627   -0.465275
     20          1           0       -4.294557    0.442544   -0.539209
     21          1           0       -3.560993    0.941299    1.001578
 ---------------------------------------------------------------------
 Rotational constants (GHZ):      1.0467353      0.7198703      0.4421658
 Leave Link  202 at Mon Aug  7 13:05:07 2023, MaxMem=   458752000 cpu:         0.0
 (Enter /opt/apps/apps/binapps/gaussian/g09d01_em64t/g09/l301.exe)
 Standard basis: 6-31G(d) (6D, 7F)
 Ernie: Thresh=  0.10000D-02 Tol=  0.10000D-05 Strict=F.
 There are   211 symmetry adapted cartesian basis functions of A   symmetry.
 There are   211 symmetry adapted basis functions of A   symmetry.
   211 basis functions,   396 primitive gaussians,   211 cartesian basis functions
    47 alpha electrons       47 beta electrons
       nuclear repulsion energy       771.8876568245 Hartrees.
 IExCor=  402 DFT=T Ex+Corr=B3LYP ExCW=0 ScaHFX=  0.200000
 ScaDFX=  0.800000  0.720000  1.000000  0.810000 ScalE2=  1.000000  1.000000
 IRadAn=      5 IRanWt=     -1 IRanGd=            0 ICorTp=0 IEmpDi=131
 NAtoms=   21 NActive=   21 NUniq=   21 SFac= 1.00D+00 NAtFMM=   60 NAOKFM=F Big=F
 Integral buffers will be    131072 words long.
 Raffenetti 2 integral format.
 Two-electron integral symmetry is turned on.
 R6Disp:  Grimme-D3 Dispersion energy=       -0.0176347783 Hartrees.
 Nuclear repulsion after empirical dispersion term =      771.8700220462 Hartrees.
 Leave Link  301 at Mon Aug  7 13:05:07 2023, MaxMem=   458752000 cpu:         0.0
 (Enter /opt/apps/apps/binapps/gaussian/g09d01_em64t/g09/l302.exe)
 NPDir=0 NMtPBC=     1 NCelOv=     1 NCel=       1 NClECP=     1 NCelD=      1
         NCelK=      1 NCelE2=     1 NClLst=     1 CellRange=     0.0.
 One-electron integrals computed using PRISM.
 NBasis=   211 RedAO= T EigKep=  5.61D-04  NBF=   211
 NBsUse=   211 1.00D-06 EigRej= -1.00D+00 NBFU=   211
 Precomputing XC quadrature grid using
 IXCGrd= 4 IRadAn=           5 IRanWt=          -1 IRanGd=           0 AccXCQ= 0.00D+00.
 Generated NRdTot=       0 NPtTot=           0 NUsed=           0 NTot=          32
 NSgBfM=   210   210   210   210   210 MxSgAt=    21 MxSgA2=    21.
 Leave Link  302 at Mon Aug  7 13:05:07 2023, MaxMem=   458752000 cpu:         0.6
 (Enter /opt/apps/apps/binapps/gaussian/g09d01_em64t/g09/l303.exe)
 DipDrv:  MaxL=1.
 Leave Link  303 at Mon Aug  7 13:05:07 2023, MaxMem=   458752000 cpu:         0.0
 (Enter /opt/apps/apps/binapps/gaussian/g09d01_em64t/g09/l401.exe)
 ExpMin= 1.61D-01 ExpMax= 5.48D+03 ExpMxC= 8.25D+02 IAcc=3 IRadAn=         5 AccDes= 0.00D+00
 Harris functional with IExCor=  402 and IRadAn=       5 diagonalized for initial guess.
 HarFok:  IExCor=  402 AccDes= 0.00D+00 IRadAn=         5 IDoV= 1 UseB2=F ITyADJ=14
 ICtDFT=  3500011 ScaDFX=  1.000000  1.000000  1.000000  1.000000
 FoFCou: FMM=F IPFlag=           0 FMFlag=      100000 FMFlg1=           0
         NFxFlg=           0 DoJE=T BraDBF=F KetDBF=T FulRan=T
         wScrn=  0.000000 ICntrl=     500 IOpCl=  0 I1Cent=   200000004 NGrid=           0
         NMat0=    1 NMatS0=      1 NMatT0=    0 NMatD0=    1 NMtDS0=    0 NMtDT0=    0
 Petite list used in FoFCou.
 Harris En= -648.692330507684    
 JPrj=0 DoOrth=F DoCkMO=F.
 Leave Link  401 at Mon Aug  7 13:05:15 2023, MaxMem=   458752000 cpu:         7.7
 (Enter /opt/apps/apps/binapps/gaussian/g09d01_em64t/g09/l502.exe)
 Closed shell SCF:
 Using DIIS extrapolation, IDIIS=  1040.
 Integral symmetry usage will be decided dynamically.
 Keep R1 ints in memory in canonical form, NReq=255049085.
 IVT=      154966 IEndB=      154966 NGot=   458752000 MDV=   208466874
 LenX=   208466874 LenY=   208421912
 Requested convergence on RMS density matrix=1.00D-08 within 128 cycles.
 Requested convergence on MAX density matrix=1.00D-06.
 Requested convergence on             energy=1.00D-06.
 No special actions if energy rises.
 FoFCou: FMM=F IPFlag=           0 FMFlag=           0 FMFlg1=           0
         NFxFlg=           0 DoJE=F BraDBF=F KetDBF=F FulRan=T
         wScrn=  0.000000 ICntrl=     600 IOpCl=  0 I1Cent=           0 NGrid=           0
         NMat0=    1 NMatS0=  22366 NMatT0=    0 NMatD0=    1 NMtDS0=    0 NMtDT0=    0
 Symmetry not used in FoFCou.
 Integral accuracy reduced to 1.0D-05 until final iterations.

 Cycle   1  Pass 0  IDiag  1:
 E= -648.283374877373    
 DIIS: error= 2.70D-02 at cycle   1 NSaved=   1.
 NSaved= 1 IEnMin= 1 EnMin= -648.283374877373     IErMin= 1 ErrMin= 2.70D-02
 ErrMax= 2.70D-02  0.00D+00 EMaxC= 1.00D-01 BMatC= 4.28D-01 BMatP= 4.28D-01
 IDIUse=3 WtCom= 7.30D-01 WtEn= 2.70D-01
 Coeff-Com:  0.100D+01
 Coeff-En:   0.100D+01
 Coeff:      0.100D+01
 Gap=     0.219 Goal=   None    Shift=    0.000
 GapD=    0.219 DampG=1.000 DampE=0.500 DampFc=0.5000 IDamp=-1.
 Damping current iteration by 5.00D-01
 RMSDP=7.77D-03 MaxDP=2.21D-01              OVMax= 2.78D-01

 Cycle   2  Pass 0  IDiag  1:
 E= -648.317013644572     Delta-E=       -0.033638767199 Rises=F Damp=T
 DIIS: error= 1.55D-02 at cycle   2 NSaved=   2.
 NSaved= 2 IEnMin= 2 EnMin= -648.317013644572     IErMin= 2 ErrMin= 1.55D-02
 ErrMax= 1.55D-02  0.00D+00 EMaxC= 1.00D-01 BMatC= 1.20D-01 BMatP= 4.28D-01
 IDIUse=3 WtCom= 8.45D-01 WtEn= 1.55D-01
 Coeff-Com:  0.302D+00 0.698D+00
 Coeff-En:   0.461D+00 0.539D+00
 Coeff:      0.327D+00 0.673D+00
 Gap=     0.172 Goal=   None    Shift=    0.000
 RMSDP=2.77D-03 MaxDP=7.40D-02 DE=-3.36D-02 OVMax= 2.35D-01

 Cycle   3  Pass 0  IDiag  1:
 E= -648.575655425330     Delta-E=       -0.258641780758 Rises=F Damp=F
 DIIS: error= 1.62D-02 at cycle   3 NSaved=   3.
 NSaved= 3 IEnMin= 3 EnMin= -648.575655425330     IErMin= 2 ErrMin= 1.55D-02
 ErrMax= 1.62D-02  0.00D+00 EMaxC= 1.00D-01 BMatC= 8.83D-02 BMatP= 1.20D-01
 IDIUse=3 WtCom= 8.38D-01 WtEn= 1.62D-01
 Coeff-Com:  0.122D+00 0.445D+00 0.433D+00
 Coeff-En:   0.000D+00 0.000D+00 0.100D+01
 Coeff:      0.102D+00 0.373D+00 0.525D+00
 Gap=     0.197 Goal=   None    Shift=    0.000
 RMSDP=1.79D-03 MaxDP=5.39D-02 DE=-2.59D-01 OVMax= 1.02D-01

 Cycle   4  Pass 0  IDiag  1:
 E= -648.637731938746     Delta-E=       -0.062076513416 Rises=F Damp=F
 DIIS: error= 8.54D-03 at cycle   4 NSaved=   4.
 NSaved= 4 IEnMin= 4 EnMin= -648.637731938746     IErMin= 4 ErrMin= 8.54D-03
 ErrMax= 8.54D-03  0.00D+00 EMaxC= 1.00D-01 BMatC= 2.01D-02 BMatP= 8.83D-02
 IDIUse=3 WtCom= 9.15D-01 WtEn= 8.54D-02
 Coeff-Com:  0.343D-01 0.759D-01 0.321D+00 0.569D+00
 Coeff-En:   0.000D+00 0.000D+00 0.208D+00 0.792D+00
 Coeff:      0.313D-01 0.694D-01 0.311D+00 0.588D+00
 Gap=     0.196 Goal=   None    Shift=    0.000
 RMSDP=6.14D-04 MaxDP=2.12D-02 DE=-6.21D-02 OVMax= 3.10D-02

 Cycle   5  Pass 0  IDiag  1:
 E= -648.652792665920     Delta-E=       -0.015060727174 Rises=F Damp=F
 DIIS: error= 1.70D-03 at cycle   5 NSaved=   5.
 NSaved= 5 IEnMin= 5 EnMin= -648.652792665920     IErMin= 5 ErrMin= 1.70D-03
 ErrMax= 1.70D-03  0.00D+00 EMaxC= 1.00D-01 BMatC= 9.70D-04 BMatP= 2.01D-02
 IDIUse=3 WtCom= 9.83D-01 WtEn= 1.70D-02
 Coeff-Com:  0.766D-02-0.483D-03 0.131D+00 0.333D+00 0.528D+00
 Coeff-En:   0.000D+00 0.000D+00 0.000D+00 0.000D+00 0.100D+01
 Coeff:      0.753D-02-0.475D-03 0.129D+00 0.328D+00 0.536D+00
 Gap=     0.189 Goal=   None    Shift=    0.000
 RMSDP=1.57D-04 MaxDP=5.09D-03 DE=-1.51D-02 OVMax= 6.78D-03

 Cycle   6  Pass 0  IDiag  1:
 E= -648.653464619359     Delta-E=       -0.000671953438 Rises=F Damp=F
 DIIS: error= 4.66D-04 at cycle   6 NSaved=   6.
 NSaved= 6 IEnMin= 6 EnMin= -648.653464619359     IErMin= 6 ErrMin= 4.66D-04
 ErrMax= 4.66D-04  0.00D+00 EMaxC= 1.00D-01 BMatC= 1.27D-04 BMatP= 9.70D-04
 IDIUse=3 WtCom= 9.95D-01 WtEn= 4.66D-03
 Coeff-Com:  0.193D-02-0.679D-02 0.502D-01 0.141D+00 0.330D+00 0.484D+00
 Coeff-En:   0.000D+00 0.000D+00 0.000D+00 0.000D+00 0.810D-01 0.919D+00
 Coeff:      0.192D-02-0.675D-02 0.499D-01 0.140D+00 0.329D+00 0.486D+00
 Gap=     0.190 Goal=   None    Shift=    0.000
 RMSDP=5.63D-05 MaxDP=2.05D-03 DE=-6.72D-04 OVMax= 2.83D-03

 Cycle   7  Pass 0  IDiag  1:
 E= -648.653553430229     Delta-E=       -0.000088810871 Rises=F Damp=F
 DIIS: error= 2.78D-04 at cycle   7 NSaved=   7.
 NSaved= 7 IEnMin= 7 EnMin= -648.653553430229     IErMin= 7 ErrMin= 2.78D-04
 ErrMax= 2.78D-04  0.00D+00 EMaxC= 1.00D-01 BMatC= 1.55D-05 BMatP= 1.27D-04
 IDIUse=3 WtCom= 9.97D-01 WtEn= 2.78D-03
 Coeff-Com:  0.499D-03-0.406D-02 0.163D-01 0.467D-01 0.146D+00 0.310D+00
 Coeff-Com:  0.484D+00
 Coeff-En:   0.000D+00 0.000D+00 0.000D+00 0.000D+00 0.000D+00 0.592D-01
 Coeff-En:   0.941D+00
 Coeff:      0.498D-03-0.405D-02 0.162D-01 0.465D-01 0.145D+00 0.310D+00
 Coeff:      0.485D+00
 Gap=     0.190 Goal=   None    Shift=    0.000
 RMSDP=1.80D-05 MaxDP=6.68D-04 DE=-8.88D-05 OVMax= 1.30D-03

 Cycle   8  Pass 0  IDiag  1:
 E= -648.653564865618     Delta-E=       -0.000011435389 Rises=F Damp=F
 DIIS: error= 5.99D-05 at cycle   8 NSaved=   8.
 NSaved= 8 IEnMin= 8 EnMin= -648.653564865618     IErMin= 8 ErrMin= 5.99D-05
 ErrMax= 5.99D-05  0.00D+00 EMaxC= 1.00D-01 BMatC= 1.07D-06 BMatP= 1.55D-05
 IDIUse=1 WtCom= 1.00D+00 WtEn= 0.00D+00
 Coeff-Com:  0.155D-03-0.152D-02 0.343D-02 0.902D-02 0.442D-01 0.116D+00
 Coeff-Com:  0.261D+00 0.567D+00
 Coeff:      0.155D-03-0.152D-02 0.343D-02 0.902D-02 0.442D-01 0.116D+00
 Coeff:      0.261D+00 0.567D+00
 Gap=     0.190 Goal=   None    Shift=    0.000
 RMSDP=5.07D-06 MaxDP=1.72D-04 DE=-1.14D-05 OVMax= 2.23D-04

 Initial convergence to 1.0D-05 achieved.  Increase integral accuracy.
 Cycle   9  Pass 1  IDiag  1:
 E= -648.653570131839     Delta-E=       -0.000005266221 Rises=F Damp=F
 DIIS: error= 1.15D-05 at cycle   1 NSaved=   1.
 NSaved= 1 IEnMin= 1 EnMin= -648.653570131839     IErMin= 1 ErrMin= 1.15D-05
 ErrMax= 1.15D-05  0.00D+00 EMaxC= 1.00D-01 BMatC= 8.49D-08 BMatP= 8.49D-08
 IDIUse=1 WtCom= 1.00D+00 WtEn= 0.00D+00
 Coeff-Com:  0.100D+01
 Coeff:      0.100D+01
 Gap=     0.190 Goal=   None    Shift=    0.000
 RMSDP=5.07D-06 MaxDP=1.72D-04 DE=-5.27D-06 OVMax= 1.98D-04

 Cycle  10  Pass 1  IDiag  1:
 E= -648.653569985823     Delta-E=        0.000000146016 Rises=F Damp=F
 DIIS: error= 2.92D-05 at cycle   2 NSaved=   2.
 NSaved= 2 IEnMin= 1 EnMin= -648.653570131839     IErMin= 1 ErrMin= 1.15D-05
 ErrMax= 2.92D-05  0.00D+00 EMaxC= 1.00D-01 BMatC= 2.56D-07 BMatP= 8.49D-08
 IDIUse=1 WtCom= 1.00D+00 WtEn= 0.00D+00
 Coeff-Com:  0.639D+00 0.361D+00
 Coeff:      0.639D+00 0.361D+00
 Gap=     0.190 Goal=   None    Shift=    0.000
 RMSDP=2.40D-06 MaxDP=8.48D-05 DE= 1.46D-07 OVMax= 1.40D-04

 Cycle  11  Pass 1  IDiag  1:
 E= -648.653570206979     Delta-E=       -0.000000221156 Rises=F Damp=F
 DIIS: error= 5.22D-06 at cycle   3 NSaved=   3.
 NSaved= 3 IEnMin= 3 EnMin= -648.653570206979     IErMin= 3 ErrMin= 5.22D-06
 ErrMax= 5.22D-06  0.00D+00 EMaxC= 1.00D-01 BMatC= 6.53D-09 BMatP= 8.49D-08
 IDIUse=1 WtCom= 1.00D+00 WtEn= 0.00D+00
 Coeff-Com:  0.314D+00 0.209D+00 0.477D+00
 Coeff:      0.314D+00 0.209D+00 0.477D+00
 Gap=     0.190 Goal=   None    Shift=    0.000
 RMSDP=4.53D-07 MaxDP=1.65D-05 DE=-2.21D-07 OVMax= 2.62D-05

 Cycle  12  Pass 1  IDiag  1:
 E= -648.653570211694     Delta-E=       -0.000000004716 Rises=F Damp=F
 DIIS: error= 1.22D-06 at cycle   4 NSaved=   4.
 NSaved= 4 IEnMin= 4 EnMin= -648.653570211694     IErMin= 4 ErrMin= 1.22D-06
 ErrMax= 1.22D-06  0.00D+00 EMaxC= 1.00D-01 BMatC= 8.40D-10 BMatP= 6.53D-09
 IDIUse=1 WtCom= 1.00D+00 WtEn= 0.00D+00
 Coeff-Com:  0.741D-01 0.636D-01 0.283D+00 0.579D+00
 Coeff:      0.741D-01 0.636D-01 0.283D+00 0.579D+00
 Gap=     0.190 Goal=   None    Shift=    0.000
 RMSDP=1.67D-07 MaxDP=5.34D-06 DE=-4.72D-09 OVMax= 9.65D-06

 Cycle  13  Pass 1  IDiag  1:
 E= -648.653570212285     Delta-E=       -0.000000000590 Rises=F Damp=F
 DIIS: error= 7.14D-07 at cycle   5 NSaved=   5.
 NSaved= 5 IEnMin= 5 EnMin= -648.653570212285     IErMin= 5 ErrMin= 7.14D-07
 ErrMax= 7.14D-07  0.00D+00 EMaxC= 1.00D-01 BMatC= 1.61D-10 BMatP= 8.40D-10
 IDIUse=1 WtCom= 1.00D+00 WtEn= 0.00D+00
 Coeff-Com:  0.175D-02 0.106D-01 0.103D+00 0.365D+00 0.520D+00
 Coeff:      0.175D-02 0.106D-01 0.103D+00 0.365D+00 0.520D+00
 Gap=     0.190 Goal=   None    Shift=    0.000
 RMSDP=7.38D-08 MaxDP=1.81D-06 DE=-5.90D-10 OVMax= 5.08D-06

 Cycle  14  Pass 1  IDiag  1:
 E= -648.653570212433     Delta-E=       -0.000000000148 Rises=F Damp=F
 DIIS: error= 1.97D-07 at cycle   6 NSaved=   6.
 NSaved= 6 IEnMin= 6 EnMin= -648.653570212433     IErMin= 6 ErrMin= 1.97D-07
 ErrMax= 1.97D-07  0.00D+00 EMaxC= 1.00D-01 BMatC= 2.13D-11 BMatP= 1.61D-10
 IDIUse=1 WtCom= 1.00D+00 WtEn= 0.00D+00
 Coeff-Com: -0.796D-02-0.102D-02 0.280D-01 0.156D+00 0.321D+00 0.504D+00
 Coeff:     -0.796D-02-0.102D-02 0.280D-01 0.156D+00 0.321D+00 0.504D+00
 Gap=     0.190 Goal=   None    Shift=    0.000
 RMSDP=2.50D-08 MaxDP=7.40D-07 DE=-1.48D-10 OVMax= 2.01D-06

 Cycle  15  Pass 1  IDiag  1:
 E= -648.653570212458     Delta-E=       -0.000000000025 Rises=F Damp=F
 DIIS: error= 8.32D-08 at cycle   7 NSaved=   7.
 NSaved= 7 IEnMin= 7 EnMin= -648.653570212458     IErMin= 7 ErrMin= 8.32D-08
 ErrMax= 8.32D-08  0.00D+00 EMaxC= 1.00D-01 BMatC= 2.61D-12 BMatP= 2.13D-11
 IDIUse=1 WtCom= 1.00D+00 WtEn= 0.00D+00
 Coeff-Com: -0.577D-02-0.211D-02 0.468D-02 0.559D-01 0.140D+00 0.312D+00
 Coeff-Com:  0.496D+00
 Coeff:     -0.577D-02-0.211D-02 0.468D-02 0.559D-01 0.140D+00 0.312D+00
 Coeff:      0.496D+00
 Gap=     0.190 Goal=   None    Shift=    0.000
 RMSDP=7.88D-09 MaxDP=2.77D-07 DE=-2.50D-11 OVMax= 5.64D-07

 SCF Done:  E(RB3LYP) =  -648.653570212     A.U. after   15 cycles
            NFock= 15  Conv=0.79D-08     -V/T= 2.0089
 KE= 6.429505270978D+02 PE=-3.057727750222D+03 EE= 9.942536308659D+02
 Leave Link  502 at Mon Aug  7 13:07:12 2023, MaxMem=   458752000 cpu:       116.4
 (Enter /opt/apps/apps/binapps/gaussian/g09d01_em64t/g09/l601.exe)
 Copying SCF densities to generalized density rwf, IOpCl= 0 IROHF=0.

 **********************************************************************

            Population analysis using the SCF density.

 **********************************************************************

 Orbital symmetries:
       Occupied  (A) (A) (A) (A) (A) (A) (A) (A) (A) (A) (A) (A)
                 (A) (A) (A) (A) (A) (A) (A) (A) (A) (A) (A) (A)
                 (A) (A) (A) (A) (A) (A) (A) (A) (A) (A) (A) (A)
                 (A) (A) (A) (A) (A) (A) (A) (A) (A) (A) (A)
       Virtual   (A) (A) (A) (A) (A) (A) (A) (A) (A) (A) (A) (A)
                 (A) (A) (A) (A) (A) (A) (A) (A) (A) (A) (A) (A)
                 (A) (A) (A) (A) (A) (A) (A) (A) (A) (A) (A) (A)
                 (A) (A) (A) (A) (A) (A) (A) (A) (A) (A) (A) (A)
                 (A) (A) (A) (A) (A) (A) (A) (A) (A) (A) (A) (A)
                 (A) (A) (A) (A) (A) (A) (A) (A) (A) (A) (A) (A)
                 (A) (A) (A) (A) (A) (A) (A) (A) (A) (A) (A) (A)
                 (A) (A) (A) (A) (A) (A) (A) (A) (A) (A) (A) (A)
                 (A) (A) (A) (A) (A) (A) (A) (A) (A) (A) (A) (A)
                 (A) (A) (A) (A) (A) (A) (A) (A) (A) (A) (A) (A)
                 (A) (A) (A) (A) (A) (A) (A) (A) (A) (A) (A) (A)
                 (A) (A) (A) (A) (A) (A) (A) (A) (A) (A) (A) (A)
                 (A) (A) (A) (A) (A) (A) (A) (A) (A) (A) (A) (A)
                 (A) (A) (A) (A) (A) (A) (A) (A)
 The electronic state is 1-A.
 Alpha  occ. eigenvalues --  -19.24350 -19.19520 -19.17803 -19.12299 -10.35669
 Alpha  occ. eigenvalues --  -10.31932 -10.28624 -10.22682 -10.22300 -10.21690
 Alpha  occ. eigenvalues --  -10.21580 -10.21451 -10.20964  -1.14317  -1.12310
 Alpha  occ. eigenvalues --   -1.06270  -1.01359  -0.87742  -0.80840  -0.77953
 Alpha  occ. eigenvalues --   -0.75346  -0.67571  -0.65232  -0.61305  -0.58898
 Alpha  occ. eigenvalues --   -0.55060  -0.52555  -0.51757  -0.51033  -0.48720
 Alpha  occ. eigenvalues --   -0.47265  -0.45707  -0.44865  -0.44139  -0.43783
 Alpha  occ. eigenvalues --   -0.42858  -0.41500  -0.41248  -0.38735  -0.37067
 Alpha  occ. eigenvalues --   -0.36234  -0.35430  -0.31313  -0.30444  -0.27481
 Alpha  occ. eigenvalues --   -0.26515  -0.25657
 Alpha virt. eigenvalues --   -0.06677  -0.05295  -0.01427   0.04889   0.06953
 Alpha virt. eigenvalues --    0.09194   0.11371   0.12883   0.13744   0.14822
 Alpha virt. eigenvalues --    0.15400   0.17132   0.17649   0.19623   0.21512
 Alpha virt. eigenvalues --    0.23381   0.26439   0.26623   0.28967   0.30665
 Alpha virt. eigenvalues --    0.31774   0.32463   0.37850   0.39339   0.46082
 Alpha virt. eigenvalues --    0.48074   0.49863   0.51098   0.52189   0.53023
 Alpha virt. eigenvalues --    0.53440   0.54365   0.55192   0.56351   0.57844
 Alpha virt. eigenvalues --    0.58255   0.58928   0.59752   0.60353   0.61279
 Alpha virt. eigenvalues --    0.62440   0.64448   0.65124   0.66522   0.68838
 Alpha virt. eigenvalues --    0.71717   0.73304   0.75369   0.77881   0.79455
 Alpha virt. eigenvalues --    0.80876   0.82351   0.82723   0.84274   0.86510
 Alpha virt. eigenvalues --    0.88332   0.89111   0.89312   0.91752   0.92000
 Alpha virt. eigenvalues --    0.94827   0.95923   0.97395   0.97854   1.00346
 Alpha virt. eigenvalues --    1.01133   1.04620   1.05921   1.06792   1.07816
 Alpha virt. eigenvalues --    1.08805   1.10318   1.11806   1.15975   1.16629
 Alpha virt. eigenvalues --    1.20679   1.24860   1.26067   1.29782   1.31613
 Alpha virt. eigenvalues --    1.34161   1.35419   1.39220   1.40839   1.42923
 Alpha virt. eigenvalues --    1.45632   1.47803   1.48590   1.52972   1.54551
 Alpha virt. eigenvalues --    1.59338   1.61281   1.65232   1.66877   1.68375
 Alpha virt. eigenvalues --    1.70413   1.72905   1.76718   1.78603   1.79212
 Alpha virt. eigenvalues --    1.80691   1.82300   1.83072   1.84707   1.85128
 Alpha virt. eigenvalues --    1.86983   1.87660   1.89665   1.90674   1.92159
 Alpha virt. eigenvalues --    1.93412   1.96621   2.01675   2.04791   2.06430
 Alpha virt. eigenvalues --    2.08449   2.11189   2.14238   2.17332   2.18927
 Alpha virt. eigenvalues --    2.20358   2.23077   2.25102   2.27135   2.29685
 Alpha virt. eigenvalues --    2.32263   2.33752   2.42922   2.45484   2.49741
 Alpha virt. eigenvalues --    2.50341   2.54938   2.55892   2.56671   2.58976
 Alpha virt. eigenvalues --    2.61667   2.65076   2.67747   2.69587   2.74166
 Alpha virt. eigenvalues --    2.75000   2.77760   2.82527   2.88900   2.92253
 Alpha virt. eigenvalues --    2.95196   2.98736   3.06527   3.08149   3.26839
 Alpha virt. eigenvalues --    3.35886   3.90071   3.92435   4.04897   4.07539
 Alpha virt. eigenvalues --    4.09460   4.12946   4.24757   4.29373   4.32375
 Alpha virt. eigenvalues --    4.39144   4.41043   4.50586   4.72457
          Condensed to atoms (all electrons):
               1          2          3          4          5          6
     1  C    5.014753  -0.057395   0.457371  -0.018311   0.000006   0.487949
     2  C   -0.057395   5.020644  -0.021322   0.493460   0.000267  -0.036860
     3  C    0.457371  -0.021322   4.956813   0.521010   0.000000  -0.016678
     4  C   -0.018311   0.493460   0.521010   4.874277  -0.000003  -0.038961
     5  C    0.000006   0.000267   0.000000  -0.000003   5.212318  -0.000536
     6  C    0.487949  -0.036860  -0.016678  -0.038961  -0.000536   5.237308
     7  C   -0.042041   0.511827  -0.040716  -0.009651   0.006276   0.447971
     8  O    0.004525  -0.000078   0.001011  -0.000010   0.000000  -0.101356
     9  O   -0.000004  -0.004450   0.000005  -0.000207  -0.076612   0.000234
    10  O    0.005908  -0.000127  -0.000051   0.000000  -0.000368  -0.084773
    11  C   -0.032256   0.004965   0.005338  -0.000228  -0.000023   0.252161
    12  C   -0.000029  -0.002616   0.000021   0.000042   0.391819   0.003307
    13  O    0.003917  -0.044441  -0.000157   0.003800  -0.094239  -0.058142
    14  H   -0.000231   0.000497  -0.000065   0.000001  -0.000496   0.008980
    15  H    0.361215   0.000049  -0.036686   0.003953   0.000000  -0.043104
    16  H    0.000700   0.340238   0.004807  -0.037414   0.000191   0.006184
    17  H   -0.034372   0.005045   0.353611  -0.042547   0.000000   0.003423
    18  H    0.003890  -0.034058  -0.038339   0.362551   0.000000   0.000305
    19  H   -0.000004  -0.000006   0.000000   0.000000   0.352341  -0.000023
    20  H    0.000000   0.000003   0.000000   0.000000   0.358749   0.000002
    21  H   -0.000001   0.000010   0.000000   0.000000   0.382163   0.000035
               7          8          9         10         11         12
     1  C   -0.042041   0.004525  -0.000004   0.005908  -0.032256  -0.000029
     2  C    0.511827  -0.000078  -0.004450  -0.000127   0.004965  -0.002616
     3  C   -0.040716   0.001011   0.000005  -0.000051   0.005338   0.000021
     4  C   -0.009651  -0.000010  -0.000207   0.000000  -0.000228   0.000042
     5  C    0.006276   0.000000  -0.076612  -0.000368  -0.000023   0.391819
     6  C    0.447971  -0.101356   0.000234  -0.084773   0.252161   0.003307
     7  C    4.678267   0.002355   0.005150  -0.000453  -0.029434  -0.009168
     8  O    0.002355   8.029713   0.000000  -0.080404   0.590520   0.000001
     9  O    0.005150   0.000000   7.996654  -0.000006  -0.000010   0.533764
    10  O   -0.000453  -0.080404  -0.000006   8.221186   0.290046  -0.000005
    11  C   -0.029434   0.590520  -0.000010   0.290046   4.412548  -0.000189
    12  C   -0.009168   0.000001   0.533764  -0.000005  -0.000189   4.370937
    13  O    0.167948  -0.000004  -0.067647  -0.020097  -0.001566   0.199727
    14  H   -0.008204   0.003628   0.000242   0.214960  -0.033106   0.000420
    15  H    0.004318   0.016415   0.000000   0.000375  -0.006981   0.000001
    16  H   -0.039819   0.000001   0.009678   0.000004  -0.000108   0.008003
    17  H    0.000834   0.000001   0.000000   0.000000  -0.000071   0.000000
    18  H    0.002637   0.000000  -0.000004   0.000000   0.000006  -0.000009
    19  H    0.000039   0.000001   0.004431   0.002234   0.000085  -0.033417
    20  H   -0.000099   0.000000   0.000517   0.000005   0.000002  -0.022561
    21  H   -0.000117   0.000000  -0.004586  -0.000007   0.000000  -0.025716
              13         14         15         16         17         18
     1  C    0.003917  -0.000231   0.361215   0.000700  -0.034372   0.003890
     2  C   -0.044441   0.000497   0.000049   0.340238   0.005045  -0.034058
     3  C   -0.000157  -0.000065  -0.036686   0.004807   0.353611  -0.038339
     4  C    0.003800   0.000001   0.003953  -0.037414  -0.042547   0.362551
     5  C   -0.094239  -0.000496   0.000000   0.000191   0.000000   0.000000
     6  C   -0.058142   0.008980  -0.043104   0.006184   0.003423   0.000305
     7  C    0.167948  -0.008204   0.004318  -0.039819   0.000834   0.002637
     8  O   -0.000004   0.003628   0.016415   0.000001   0.000001   0.000000
     9  O   -0.067647   0.000242   0.000000   0.009678   0.000000  -0.000004
    10  O   -0.020097   0.214960   0.000375   0.000004   0.000000   0.000000
    11  C   -0.001566  -0.033106  -0.006981  -0.000108  -0.000071   0.000006
    12  C    0.199727   0.000420   0.000001   0.008003   0.000000  -0.000009
    13  O    8.447293   0.042370  -0.000039  -0.010761   0.000001  -0.000022
    14  H    0.042370   0.323756  -0.000077  -0.000013   0.000000   0.000000
    15  H   -0.000039  -0.000077   0.517847   0.000012  -0.003867  -0.000134
    16  H   -0.010761  -0.000013   0.000012   0.563949  -0.000169  -0.003985
    17  H    0.000001   0.000000  -0.003867  -0.000169   0.585388  -0.004944
    18  H   -0.000022   0.000000  -0.000134  -0.003985  -0.004944   0.549942
    19  H    0.002947   0.000733   0.000000  -0.000034   0.000000   0.000000
    20  H    0.003156   0.000008   0.000000  -0.000002   0.000000   0.000000
    21  H    0.000194   0.000050   0.000000   0.000018   0.000000   0.000000
              19         20         21
     1  C   -0.000004   0.000000  -0.000001
     2  C   -0.000006   0.000003   0.000010
     3  C    0.000000   0.000000   0.000000
     4  C    0.000000   0.000000   0.000000
     5  C    0.352341   0.358749   0.382163
     6  C   -0.000023   0.000002   0.000035
     7  C    0.000039  -0.000099  -0.000117
     8  O    0.000001   0.000000   0.000000
     9  O    0.004431   0.000517  -0.004586
    10  O    0.002234   0.000005  -0.000007
    11  C    0.000085   0.000002   0.000000
    12  C   -0.033417  -0.022561  -0.025716
    13  O    0.002947   0.003156   0.000194
    14  H    0.000733   0.000008   0.000050
    15  H    0.000000   0.000000   0.000000
    16  H   -0.000034  -0.000002   0.000018
    17  H    0.000000   0.000000   0.000000
    18  H    0.000000   0.000000   0.000000
    19  H    0.531832  -0.020609  -0.027587
    20  H   -0.020609   0.506955  -0.016465
    21  H   -0.027587  -0.016465   0.472644
 Mulliken charges:
               1
     1  C   -0.155588
     2  C   -0.175653
     3  C   -0.145974
     4  C   -0.111762
     5  C   -0.531853
     6  C   -0.067425
     7  C    0.352079
     8  O   -0.466319
     9  O   -0.397149
    10  O   -0.548428
    11  C    0.548301
    12  C    0.585668
    13  O   -0.574239
    14  H    0.446546
    15  H    0.186704
    16  H    0.158522
    17  H    0.137667
    18  H    0.162164
    19  H    0.187035
    20  H    0.190340
    21  H    0.219365
 Sum of Mulliken charges =   0.00000
 Mulliken charges with hydrogens summed into heavy atoms:
               1
     1  C    0.031116
     2  C   -0.017131
     3  C   -0.008307
     4  C    0.050401
     5  C    0.064886
     6  C   -0.067425
     7  C    0.352079
     8  O   -0.466319
     9  O   -0.397149
    10  O   -0.101882
    11  C    0.548301
    12  C    0.585668
    13  O   -0.574239
 Electronic spatial extent (au):  <R**2>=           2419.4226
 Charge=              0.0000 electrons
 Dipole moment (field-independent basis, Debye):
    X=             -2.3639    Y=             -3.1063    Z=             -1.6216  Tot=              4.2270
 Quadrupole moment (field-independent basis, Debye-Ang):
   XX=            -67.5853   YY=            -81.5893   ZZ=            -74.4770
   XY=            -14.4595   XZ=              2.9873   YZ=              0.5099
 Traceless Quadrupole moment (field-independent basis, Debye-Ang):
   XX=              6.9652   YY=             -7.0388   ZZ=              0.0735
   XY=            -14.4595   XZ=              2.9873   YZ=              0.5099
 Octapole moment (field-independent basis, Debye-Ang**2):
  XXX=            -29.4133  YYY=            -40.2865  ZZZ=              3.1159  XYY=             -8.4920
  XXY=             -1.6864  XXZ=             -7.0804  XZZ=             -9.0963  YZZ=             11.0005
  YYZ=             -5.9347  XYZ=            -11.5359
 Hexadecapole moment (field-independent basis, Debye-Ang**3):
 XXXX=          -1650.3824 YYYY=          -1211.4463 ZZZZ=           -116.2732 XXXY=            -79.0110
 XXXZ=             34.6482 YYYX=            -69.9921 YYYZ=             -8.8880 ZZZX=             -3.8770
 ZZZY=             -4.0115 XXYY=           -527.7397 XXZZ=           -321.0704 YYZZ=           -224.6304
 XXYZ=              4.1240 YYXZ=             -0.2436 ZZXY=              9.2161
 N-N= 7.718700220462D+02 E-N=-3.057727750634D+03  KE= 6.429505270978D+02
 No NMR shielding tensors so no spin-rotation constants.
 Leave Link  601 at Mon Aug  7 13:07:12 2023, MaxMem=   458752000 cpu:         0.2
 (Enter /opt/apps/apps/binapps/gaussian/g09d01_em64t/g09/l602.exe)
 FitSet:  NAtFit=    21 NAtPot=    21 NAtFrz=     0 MDM=    25 TotChg=   0.00000
 Merz-Kollman atomic radii used.

 **********************************************************************

            Electrostatic Properties Using The SCF Density

 **********************************************************************

       Atomic Center    1 is at   2.393668 -0.261436  0.118830
       Atomic Center    2 is at   0.214847 -1.880298 -0.386698
       Atomic Center    3 is at   2.503113 -1.691884  0.129747
       Atomic Center    4 is at   1.423784 -2.537672 -0.129550
       Atomic Center    5 is at  -3.391572  0.709704 -0.015620
       Atomic Center    6 is at   1.163419  0.339168 -0.135846
       Atomic Center    7 is at   0.022188 -0.514505 -0.271816
       Atomic Center    8 is at   2.077026  2.472295  0.424398
       Atomic Center    9 is at  -2.625001 -1.349857  0.744658
       Atomic Center   10 is at  -0.004257  2.467397 -0.304305
       Atomic Center   11 is at   1.091295  1.855281  0.065073
       Atomic Center   12 is at  -2.462040 -0.428445 -0.022247
       Atomic Center   13 is at  -1.209692  0.122315 -0.331433
       Atomic Center   14 is at  -0.476614  1.705991 -0.593922
       Atomic Center   15 is at   3.240623  0.333962  0.481552
       Atomic Center   16 is at  -0.735348 -2.391268 -0.495925
       Atomic Center   17 is at   3.517705 -2.192920  0.278995
       Atomic Center   18 is at   1.582464 -3.627922 -0.045573
       Atomic Center   19 is at  -2.930096  1.551627 -0.465275
       Atomic Center   20 is at  -4.294557  0.442544 -0.539209
       Atomic Center   21 is at  -3.560993  0.941299  1.001578
    1075 points will be used for fitting atomic charges
 Fitting point charges to electrostatic potential
 Charges from ESP fit, RMS=   0.00127 RRMS=   0.06998:
 ESP charges:
               1
     1  C   -0.061559
     2  C   -0.209258
     3  C   -0.183023
     4  C   -0.034660
     5  C   -0.577262
     6  C   -0.193709
     7  C    0.251108
     8  O   -0.489074
     9  O   -0.433186
    10  O   -0.482430
    11  C    0.654776
    12  C    0.685227
    13  O   -0.304150
    14  H    0.326527
    15  H    0.137925
    16  H    0.117458
    17  H    0.126926
    18  H    0.134389
    19  H    0.158706
    20  H    0.159776
    21  H    0.215495
 Sum of ESP charges =   0.00000
 ESP charges with hydrogens summed into heavy atoms:
               1
     1  C    0.076366
     2  C   -0.091800
     3  C   -0.056097
     4  C    0.099729
     5  C   -0.043286
     6  C   -0.193709
     7  C    0.251108
     8  O   -0.489074
     9  O   -0.433186
    10  O   -0.155904
    11  C    0.654776
    12  C    0.685227
    13  O   -0.304150
 Charge=   0.00000 Dipole=    -2.3892    -3.1316    -1.6061 Tot=     4.2538
 -----------------------------------------------------------------

              Electrostatic Properties (Atomic Units)

 -----------------------------------------------------------------
    Center     Electric         -------- Electric Field --------
               Potential          X             Y             Z
 -----------------------------------------------------------------
    1 Atom    -14.710852
    2 Atom    -14.713479
    3 Atom    -14.710866
    4 Atom    -14.704140
    5 Atom    -14.717406
    6 Atom    -14.700936
    7 Atom    -14.639035
    8 Atom    -22.344086
    9 Atom    -22.290934
   10 Atom    -22.268629
   11 Atom    -14.607209
   12 Atom    -14.571327
   13 Atom    -22.218733
   14 Atom     -0.948233
   15 Atom     -1.090391
   16 Atom     -1.088358
   17 Atom     -1.089564
   18 Atom     -1.072877
   19 Atom     -1.085356
   20 Atom     -1.074388
   21 Atom     -1.072727
 -----------------------------------------------------------------
 Leave Link  602 at Mon Aug  7 13:07:12 2023, MaxMem=   458752000 cpu:         0.2
 (Enter /opt/apps/apps/binapps/gaussian/g09d01_em64t/g09/l701.exe)
 Compute integral first derivatives.
 ... and contract with generalized density number  0.
 R6Disp: Adding Grimme-D3 dispersion energy 1st derivatives to the gradient.
 Leave Link  701 at Mon Aug  7 13:07:12 2023, MaxMem=   458752000 cpu:         0.2
 (Enter /opt/apps/apps/binapps/gaussian/g09d01_em64t/g09/l702.exe)
 L702 exits ... SP integral derivatives will be done elsewhere.
 Leave Link  702 at Mon Aug  7 13:07:13 2023, MaxMem=   458752000 cpu:         0.0
 (Enter /opt/apps/apps/binapps/gaussian/g09d01_em64t/g09/l703.exe)
 Compute integral first derivatives, UseDBF=F ICtDFT=           0.
 Integral derivatives from FoFJK, PRISM(SPDF).
 Calling FoFJK, ICntrl=      2127 FMM=F ISym2X=0 I1Cent= 0 IOpClX= 0 NMat=1 NMatS=1 NMatT=0.
 FoFJK:  IHMeth= 1 ICntrl=    2127 DoSepK=F KAlg= 0 I1Cent=   0 FoldK=F
 IRaf=         0 NMat=   1 IRICut=       1 DoRegI=T DoRafI=F ISym2E= 0.
 FoFCou: FMM=F IPFlag=           0 FMFlag=      100000 FMFlg1=         800
         NFxFlg=           0 DoJE=F BraDBF=F KetDBF=F FulRan=T
         wScrn=  0.000000 ICntrl=    2127 IOpCl=  0 I1Cent=           0 NGrid=           0
         NMat0=    1 NMatS0=      1 NMatT0=    0 NMatD0=    1 NMtDS0=    0 NMtDT0=    0
 Symmetry not used in FoFCou.
 Leave Link  703 at Mon Aug  7 13:07:42 2023, MaxMem=   458752000 cpu:        29.4
 (Enter /opt/apps/apps/binapps/gaussian/g09d01_em64t/g09/l716.exe)
 Dipole        =-9.30048165D-01-1.22212909D+00-6.37996358D-01
 ***** Axes restored to original set *****
 -------------------------------------------------------------------
 Center     Atomic                   Forces (Hartrees/Bohr)
 Number     Number              X              Y              Z
 -------------------------------------------------------------------
      1        6          -0.004054773    0.026094180   -0.025102106
      2        6          -0.040168324   -0.002037637   -0.013066597
      3        6           0.034419075    0.010758867   -0.000430206
      4        6           0.014565005   -0.014501168    0.007925393
      5        6          -0.015562930    0.014715371    0.031192522
      6        6          -0.012050736   -0.018663621   -0.014867867
      7        6           0.036735910    0.005351313    0.003294473
      8        8          -0.006601154   -0.001619956   -0.005348246
      9        8          -0.000376466    0.034715457    0.016650577
     10        8          -0.001729917   -0.018042305    0.008257914
     11        6           0.058726281    0.019619734   -0.010793420
     12        6           0.031132009   -0.042107888   -0.058835245
     13        8          -0.001265918    0.030435468    0.011984207
     14        1          -0.048544923    0.004015517    0.014605038
     15        1          -0.007502686    0.003924242    0.010358675
     16        1           0.000360812    0.012804151   -0.005087626
     17        1          -0.018856223   -0.023831585    0.010753926
     18        1          -0.006925357   -0.009798521    0.013238770
     19        1           0.007846772   -0.008479761    0.021014223
     20        1          -0.012594672   -0.005989896    0.002791133
     21        1          -0.007551786   -0.017361963   -0.018535536
 -------------------------------------------------------------------
 Cartesian Forces:  Max     0.058835245 RMS     0.020858361
 Z-matrix is all fixed cartesians, so copy forces.
 Leave Link  716 at Mon Aug  7 13:07:42 2023, MaxMem=   458752000 cpu:         0.0
 (Enter /opt/apps/apps/binapps/gaussian/g09d01_em64t/g09/l103.exe)

 GradGradGradGradGradGradGradGradGradGradGradGradGradGradGradGradGradGrad
 Berny optimization.
 Search for a local minimum.
 Step number   1 out of a maximum of    2
 All quantities printed in internal units (Hartrees-Bohrs-Radians)
 Second derivative matrix not updated -- first step.
 ITU=  0
     Eigenvalues ---    0.00062   0.00088   0.00165   0.00229   0.00496
     Eigenvalues ---    0.00912   0.01025   0.01371   0.01746   0.02300
     Eigenvalues ---    0.02789   0.03432   0.03975   0.04399   0.05242
     Eigenvalues ---    0.05491   0.06487   0.06671   0.06884   0.07505
     Eigenvalues ---    0.08047   0.09305   0.10448   0.11794   0.12570
     Eigenvalues ---    0.14077   0.14191   0.15104   0.15327   0.18812
     Eigenvalues ---    0.20132   0.22081   0.24735   0.28184   0.29690
     Eigenvalues ---    0.31822   0.38006   0.40579   0.45041   0.47099
     Eigenvalues ---    0.60851   0.66048   0.78389   0.91352   0.98754
     Eigenvalues ---    1.01098   1.06861   1.10751   1.19477   1.22736
     Eigenvalues ---    1.32360   1.38847   1.46000   1.52882   1.67825
     Eigenvalues ---    2.27229   2.30052
 Quadratic step=3.269D+00 exceeds max=3.000D-01 adjusted using Lamda=-2.602D-01.
 Angle between NR and scaled steps=  65.87 degrees.
 Angle between quadratic step and forces=  31.31 degrees.
 Linear search not attempted -- first point.
 TrRot= -0.014461  0.020642  0.000597 -0.574419  0.000885  0.574204
 Variable       Old X    -DE/DX   Delta X   Delta X   Delta X     New X
                                 (Linear)    (Quad)   (Total)
    X1       27.08788  -0.00405   0.00000  -0.00919  -0.00180  27.08608
    Y1       24.77531   0.02609   0.00000   0.02191   0.02604  24.80134
    Z1       22.25641  -0.02510   0.00000  -0.03256  -0.04017  22.21624
    X2       22.19062  -0.04017   0.00000  -0.04657  -0.03903  22.15158
    Y2       26.55113  -0.00204   0.00000  -0.01316  -0.00783  26.54330
    Z2       21.96089  -0.01307   0.00000  -0.02860  -0.03171  21.92919
    X3       26.47844   0.03442   0.00000   0.02758   0.03446  26.51289
    Y3       27.03220   0.01076   0.00000   0.01012   0.01501  27.04721
    Z3       20.88337  -0.00043   0.00000   0.01072   0.00461  20.88797
    X4       24.02659   0.01457   0.00000   0.00908   0.01604  24.04263
    Y4       27.98791  -0.01450   0.00000  -0.03216  -0.02666  27.96125
    Z4       20.71053   0.00793   0.00000   0.01768   0.01385  20.72438
    X5       17.21159  -0.01556   0.00000  -0.02595  -0.01789  17.19369
    Y5       20.22197   0.01472   0.00000  -0.01640  -0.01122  20.21075
    Z5       24.41935   0.03119   0.00000   0.03774   0.03527  24.45462
    X6       25.18182  -0.01205   0.00000   0.00173   0.00970  25.19152
    Y6       23.41207  -0.01866   0.00000  -0.01842  -0.01445  23.39761
    Z6       23.45355  -0.01487   0.00000  -0.04345  -0.05033  23.40322
    X7       22.62963   0.03674   0.00000   0.02691   0.03482  22.66445
    Y7       24.22967   0.00535   0.00000   0.01534   0.02000  24.24967
    Z7       23.08303   0.00329   0.00000   0.00584   0.00125  23.08428
    X8       28.10019  -0.00660   0.00000   0.01747   0.02542  28.12561
    Y8       20.09540  -0.00162   0.00000  -0.01572  -0.01284  20.08256
    Z8       24.36658  -0.00535   0.00000  -0.00898  -0.01964  24.34694
    X9       17.52309  -0.00038   0.00000  -0.01264  -0.00642  17.51667
    Y9       23.10469   0.03472   0.00000   0.09734   0.10406  23.20875
    Z9       21.11734   0.01665   0.00000   0.00681   0.00554  21.12288
   X10       24.26173  -0.00173   0.00000  -0.01139  -0.00236  24.25937
   Y10       19.64507  -0.01804   0.00000   0.00772   0.01068  19.65575
   Z10       25.92502   0.00826   0.00000   0.00064  -0.00735  25.91767
   X11       25.93336   0.05873   0.00000   0.04956   0.05784  25.99120
   Y11       20.84389   0.01962   0.00000   0.02720   0.03043  20.87432
   Z11       24.55393  -0.01079   0.00000   0.01625   0.00756  24.56149
   X12       18.24034   0.03113   0.00000   0.06932   0.07685  18.31719
   Y12       22.49545  -0.04211   0.00000  -0.10884  -0.10325  22.39220
   Z12       23.20093  -0.05884   0.00000  -0.09529  -0.09754  23.10339
   X13       20.76556  -0.00127   0.00000   0.01343   0.02170  20.78726
   Y13       22.62583   0.03044   0.00000   0.05553   0.06015  22.68598
   Z13       23.99572   0.01198   0.00000   0.03328   0.02933  24.02505
   X14       22.94569  -0.04854   0.00000  -0.10844  -0.09924  22.84644
   Y14       20.83298   0.00402   0.00000  -0.03311  -0.02980  20.80318
   Z14       25.77172   0.01461   0.00000   0.05260   0.04622  25.81794
   X15       28.99327  -0.00750   0.00000  -0.01725  -0.01014  28.98314
   Y15       23.98065   0.00392   0.00000   0.01599   0.01977  24.00042
   Z15       22.06819   0.01036   0.00000   0.03054   0.02113  22.08932
   X16       20.17897   0.00036   0.00000  -0.02398  -0.01644  20.16253
   Y16       26.91985   0.01280   0.00000   0.03499   0.04080  26.96066
   Z16       21.83245  -0.00509   0.00000  -0.02049  -0.02192  21.81052
   X17       28.03952  -0.01886   0.00000  -0.02114  -0.01468  28.02485
   Y17       28.22257  -0.02383   0.00000  -0.04469  -0.03970  28.18287
   Z17       19.99001   0.01075   0.00000   0.01823   0.01155  20.00156
   X18       23.70698  -0.00693   0.00000  -0.01999  -0.01354  23.69344
   Y18       29.67815  -0.00980   0.00000  -0.03152  -0.02538  29.65276
   Z18       19.52698   0.01324   0.00000   0.04241   0.03965  19.56664
   X19       18.46078   0.00785   0.00000  -0.00413   0.00487  18.46566
   Y19       19.60056  -0.00848   0.00000  -0.02387  -0.01966  19.58090
   Z19       25.85711   0.02101   0.00000   0.05497   0.05125  25.90836
   X20       15.37056  -0.01259   0.00000  -0.04102  -0.03232  15.33824
   Y20       20.63100  -0.00599   0.00000  -0.01119  -0.00597  20.62503
   Z20       25.18680   0.00279   0.00000   0.01238   0.01149  25.19829
   X21       17.16516  -0.00755   0.00000  -0.03451  -0.02785  17.13731
   Y21       18.81285  -0.01736   0.00000  -0.03605  -0.03016  18.78269
   Z21       23.00471  -0.01854   0.00000  -0.00691  -0.01002  22.99469
         Item               Value     Threshold  Converged?
 Maximum Force            0.058835     0.000450     NO 
 RMS     Force            0.020858     0.000300     NO 
 Maximum Displacement     0.104056     0.001800     NO 
 RMS     Displacement     0.037339     0.001200     NO 
 Predicted change in Energy=-3.298843D-02
 GradGradGradGradGradGradGradGradGradGradGradGradGradGradGradGradGradGrad

 Leave Link  103 at Mon Aug  7 13:07:42 2023, MaxMem=   458752000 cpu:         0.0
 (Enter /opt/apps/apps/binapps/gaussian/g09d01_em64t/g09/l9999.exe)
 1\1\GINC-NODE690\Force\RB3LYP\6-31G(d)\C9H8O4\MBDX6CW3\07-Aug-2023\0\\
 #p b3lyp/6-31g* pop=mk empiricaldispersion=gd3 int(ultrafine) force\\a
 spirin\\0,1\C,14.33429122,13.11052799,11.77758455\C,11.74276829,14.050
 25482,11.62120461\C,14.01178598,14.30482507,11.05100155\C,12.714324,14
 .81056452,10.95953822\C,9.10797894,10.70100784,12.92216301\C,13.325647
 12,12.38913298,12.41108537\C,11.97508574,12.82178998,12.2150135\O,14.8
 6997843,10.6340301,12.89423823\O,9.27282035,12.22647667,11.17481709\O,
 12.83875465,10.3957212,13.7189281\C,13.72334123,11.03011131,12.9933822
 2\C,9.65237319,11.90407753,12.27740407\O,10.98865867,11.97307467,12.69
 798875\H,12.14233398,11.02433562,13.63780737\H,15.34258008,12.69001245
 ,11.677984\H,10.6782496,14.24537301,11.55323267\H,14.83787656,14.93474
 245,10.57825804\H,12.54519224,15.70500016,10.33323526\H,9.76902664,10.
 37217021,13.68299484\H,8.13374996,10.91745257,13.32828045\H,9.08341289
 ,9.95533049,12.1735692\\Version=ES64L-G09RevD.01\State=1-A\HF=-648.653
 5702\RMSD=7.880e-09\RMSF=2.086e-02\Dipole=-1.2929354,1.045309,0.035716
 6\Quadrupole=-1.5940215,1.7366173,-0.1425958,9.0420067,-7.9219951,-0.6
 658706\PG=C01 [X(C9H8O4)]\\@


 THE CAUTIOUS SELDOM ERR...CONFUCIUS                   
 Job cpu time:       0 days  0 hours  2 minutes 35.3 seconds.
 File lengths (MBytes):  RWF=     20 Int=      0 D2E=      0 Chk=      3 Scr=      1
 Normal termination of Gaussian 09 at Mon Aug  7 13:07:42 2023.
