 Entering Gaussian System, Link 0=/opt/apps/apps/binapps/gaussian/g09d01_em64t/g09/g09
 Initial command:
 /opt/apps/apps/binapps/gaussian/g09d01_em64t/g09/l1.exe "/net/scratch2/mbdx6cw3/aspirin/300K-meta/dft/qm_input/gau_temp_5/Gau-23821.inp" -scrdir="/net/scratch2/mbdx6cw3/aspirin/300K-meta/dft/qm_input/gau_temp_5/"
 Entering Link 1 = /opt/apps/apps/binapps/gaussian/g09d01_em64t/g09/l1.exe PID=     23823.
  
 Copyright (c) 1988,1990,1992,1993,1995,1998,2003,2009,2013,
            Gaussian, Inc.  All Rights Reserved.
  
 This is part of the Gaussian(R) 09 program.  It is based on
 the Gaussian(R) 03 system (copyright 2003, Gaussian, Inc.),
 the Gaussian(R) 98 system (copyright 1998, Gaussian, Inc.),
 the Gaussian(R) 94 system (copyright 1995, Gaussian, Inc.),
 the Gaussian 92(TM) system (copyright 1992, Gaussian, Inc.),
 the Gaussian 90(TM) system (copyright 1990, Gaussian, Inc.),
 the Gaussian 88(TM) system (copyright 1988, Gaussian, Inc.),
 the Gaussian 86(TM) system (copyright 1986, Carnegie Mellon
 University), and the Gaussian 82(TM) system (copyright 1983,
 Carnegie Mellon University). Gaussian is a federally registered
 trademark of Gaussian, Inc.
  
 This software contains proprietary and confidential information,
 including trade secrets, belonging to Gaussian, Inc.
  
 This software is provided under written license and may be
 used, copied, transmitted, or stored only in accord with that
 written license.
  
 The following legend is applicable only to US Government
 contracts under FAR:
  
                    RESTRICTED RIGHTS LEGEND
  
 Use, reproduction and disclosure by the US Government is
 subject to restrictions as set forth in subparagraphs (a)
 and (c) of the Commercial Computer Software - Restricted
 Rights clause in FAR 52.227-19.
  
 Gaussian, Inc.
 340 Quinnipiac St., Bldg. 40, Wallingford CT 06492
  
  
 ---------------------------------------------------------------
 Warning -- This program may not be used in any manner that
 competes with the business of Gaussian, Inc. or will provide
 assistance to any competitor of Gaussian, Inc.  The licensee
 of this program is prohibited from giving any competitor of
 Gaussian, Inc. access to this program.  By using this program,
 the user acknowledges that Gaussian, Inc. is engaged in the
 business of creating and licensing software in the field of
 computational chemistry and represents and warrants to the
 licensee that it is not a competitor of Gaussian, Inc. and that
 it will not use this program in any manner prohibited above.
 ---------------------------------------------------------------
  

 Cite this work as:
 Gaussian 09, Revision D.01,
 M. J. Frisch, G. W. Trucks, H. B. Schlegel, G. E. Scuseria, 
 M. A. Robb, J. R. Cheeseman, G. Scalmani, V. Barone, B. Mennucci, 
 G. A. Petersson, H. Nakatsuji, M. Caricato, X. Li, H. P. Hratchian, 
 A. F. Izmaylov, J. Bloino, G. Zheng, J. L. Sonnenberg, M. Hada, 
 M. Ehara, K. Toyota, R. Fukuda, J. Hasegawa, M. Ishida, T. Nakajima, 
 Y. Honda, O. Kitao, H. Nakai, T. Vreven, J. A. Montgomery, Jr., 
 J. E. Peralta, F. Ogliaro, M. Bearpark, J. J. Heyd, E. Brothers, 
 K. N. Kudin, V. N. Staroverov, T. Keith, R. Kobayashi, J. Normand, 
 K. Raghavachari, A. Rendell, J. C. Burant, S. S. Iyengar, J. Tomasi, 
 M. Cossi, N. Rega, J. M. Millam, M. Klene, J. E. Knox, J. B. Cross, 
 V. Bakken, C. Adamo, J. Jaramillo, R. Gomperts, R. E. Stratmann, 
 O. Yazyev, A. J. Austin, R. Cammi, C. Pomelli, J. W. Ochterski, 
 R. L. Martin, K. Morokuma, V. G. Zakrzewski, G. A. Voth, 
 P. Salvador, J. J. Dannenberg, S. Dapprich, A. D. Daniels, 
 O. Farkas, J. B. Foresman, J. V. Ortiz, J. Cioslowski, 
 and D. J. Fox, Gaussian, Inc., Wallingford CT, 2013.
 
 ******************************************
 Gaussian 09:  ES64L-G09RevD.01 24-Apr-2013
                 7-Aug-2023 
 ******************************************
 %chk=./gau_temp_5/mol_chk.chk
 %mem=3500MB
 -------------------------------------------------------------------
 #p b3lyp/6-31g* pop=mk empiricaldispersion=gd3 int(ultrafine) force
 -------------------------------------------------------------------
 1/10=7,30=1,38=1/1,3;
 2/12=2,17=6,18=5,40=1/2;
 3/5=1,6=6,7=1,11=2,16=1,25=1,30=1,71=1,74=-5,75=-5,124=31/1,2,3;
 4//1;
 5/5=2,38=5/2;
 6/7=2,8=2,9=2,10=2,15=8,20=1,28=1/1,2;
 7/29=1/1,2,3,16;
 1/10=7,30=1/3;
 99//99;
 Leave Link    1 at Mon Aug  7 12:52:40 2023, MaxMem=   458752000 cpu:         0.0
 (Enter /opt/apps/apps/binapps/gaussian/g09d01_em64t/g09/l101.exe)
 -------
 aspirin
 -------
 Symbolic Z-matrix:
 Charge =  0 Multiplicity = 1
 C                     14.07764   11.62341   13.61945 
 C                     11.85564   13.49872   13.61592 
 C                     13.88737   12.55507   14.71208 
 C                     12.8547   13.57914   14.65923 
 C                     9.31341   12.91802   10.10193 
 C                     13.18937   11.69364   12.51727 
 C                     12.05182   12.54209   12.6146 
 O                     14.403    9.81264   11.51533 
 O                     9.29007   13.8421   12.21621 
 O                     12.90485   11.00122   10.27782 
 C                     13.6266   10.73292   11.37002 
 C                     9.95057   13.14231   11.42438 
 O                     11.1724   12.54317   11.59004 
 H                     12.25292   11.67974   10.58748 
 H                     14.99942   11.08544   13.57072 
 H                     11.03468   14.18744   13.6928 
 H                     14.67916   12.47271   15.42665 
 H                     12.69758   14.40318   15.35739 
 H                     8.98485   11.88076   10.13822 
 H                     8.43013   13.50241   10.12405 
 H                     10.0113   13.17257   9.30195 
 
 NAtoms=     21 NQM=       21 NQMF=       0 NMMI=      0 NMMIF=      0
                NMic=       0 NMicF=      0.
                    Isotopes and Nuclear Properties:
 (Nuclear quadrupole moments (NQMom) in fm**2, nuclear magnetic moments (NMagM)
  in nuclear magnetons)

  Atom         1           2           3           4           5           6           7           8           9          10
 IAtWgt=          12          12          12          12          12          12          12          16          16          16
 AtmWgt=  12.0000000  12.0000000  12.0000000  12.0000000  12.0000000  12.0000000  12.0000000  15.9949146  15.9949146  15.9949146
 NucSpn=           0           0           0           0           0           0           0           0           0           0
 AtZEff=   0.0000000   0.0000000   0.0000000   0.0000000   0.0000000   0.0000000   0.0000000   0.0000000   0.0000000   0.0000000
 NQMom=    0.0000000   0.0000000   0.0000000   0.0000000   0.0000000   0.0000000   0.0000000   0.0000000   0.0000000   0.0000000
 NMagM=    0.0000000   0.0000000   0.0000000   0.0000000   0.0000000   0.0000000   0.0000000   0.0000000   0.0000000   0.0000000
 AtZNuc=   6.0000000   6.0000000   6.0000000   6.0000000   6.0000000   6.0000000   6.0000000   8.0000000   8.0000000   8.0000000

  Atom        11          12          13          14          15          16          17          18          19          20
 IAtWgt=          12          12          16           1           1           1           1           1           1           1
 AtmWgt=  12.0000000  12.0000000  15.9949146   1.0078250   1.0078250   1.0078250   1.0078250   1.0078250   1.0078250   1.0078250
 NucSpn=           0           0           0           1           1           1           1           1           1           1
 AtZEff=   0.0000000   0.0000000   0.0000000   0.0000000   0.0000000   0.0000000   0.0000000   0.0000000   0.0000000   0.0000000
 NQMom=    0.0000000   0.0000000   0.0000000   0.0000000   0.0000000   0.0000000   0.0000000   0.0000000   0.0000000   0.0000000
 NMagM=    0.0000000   0.0000000   0.0000000   2.7928460   2.7928460   2.7928460   2.7928460   2.7928460   2.7928460   2.7928460
 AtZNuc=   6.0000000   6.0000000   8.0000000   1.0000000   1.0000000   1.0000000   1.0000000   1.0000000   1.0000000   1.0000000

  Atom        21
 IAtWgt=           1
 AtmWgt=   1.0078250
 NucSpn=           1
 AtZEff=   0.0000000
 NQMom=    0.0000000
 NMagM=    2.7928460
 AtZNuc=   1.0000000
 Leave Link  101 at Mon Aug  7 12:52:40 2023, MaxMem=   458752000 cpu:         0.1
 (Enter /opt/apps/apps/binapps/gaussian/g09d01_em64t/g09/l103.exe)

 GradGradGradGradGradGradGradGradGradGradGradGradGradGradGradGradGradGrad
 Berny optimization.
 Initialization pass.
 Trust Radius=3.00D-01 FncErr=1.00D-07 GrdErr=1.00D-07
 Number of steps in this run=      2 maximum allowed number of steps=      2.
 GradGradGradGradGradGradGradGradGradGradGradGradGradGradGradGradGradGrad

 Leave Link  103 at Mon Aug  7 12:52:40 2023, MaxMem=   458752000 cpu:         0.0
 (Enter /opt/apps/apps/binapps/gaussian/g09d01_em64t/g09/l202.exe)
                          Input orientation:                          
 ---------------------------------------------------------------------
 Center     Atomic      Atomic             Coordinates (Angstroms)
 Number     Number       Type             X           Y           Z
 ---------------------------------------------------------------------
      1          6           0       14.077638   11.623410   13.619449
      2          6           0       11.855636   13.498722   13.615916
      3          6           0       13.887371   12.555074   14.712082
      4          6           0       12.854705   13.579140   14.659228
      5          6           0        9.313408   12.918019   10.101930
      6          6           0       13.189374   11.693639   12.517265
      7          6           0       12.051818   12.542092   12.614601
      8          8           0       14.403005    9.812645   11.515335
      9          8           0        9.290070   13.842102   12.216214
     10          8           0       12.904848   11.001222   10.277818
     11          6           0       13.626599   10.732925   11.370020
     12          6           0        9.950567   13.142306   11.424377
     13          8           0       11.172396   12.543166   11.590036
     14          1           0       12.252921   11.679735   10.587476
     15          1           0       14.999423   11.085442   13.570719
     16          1           0       11.034683   14.187441   13.692801
     17          1           0       14.679164   12.472713   15.426654
     18          1           0       12.697576   14.403182   15.357389
     19          1           0        8.984850   11.880759   10.138222
     20          1           0        8.430133   13.502408   10.124047
     21          1           0       10.011296   13.172567    9.301951
 ---------------------------------------------------------------------
                    Distance matrix (angstroms):
                    1          2          3          4          5
     1  C    0.000000
     2  C    2.907594   0.000000
     3  C    1.448463   2.493993   0.000000
     4  C    2.530136   1.446758   1.455302   0.000000
     5  C    6.061918   4.375869   6.504335   5.809202   0.000000
     6  C    1.417306   2.498844   2.458961   2.873173   4.728220
     7  C    2.440828   1.398664   2.787266   2.429115   3.735469
     8  O    2.795001   4.948606   4.243346   5.144685   6.127402
     9  O    5.460080   2.942652   5.387112   4.329445   2.307525
    10  O    3.595699   4.298982   4.800260   5.083791   4.074738
    11  C    2.460962   3.978693   3.815443   4.417652   4.998631
    12  C    4.915090   2.925605   5.162584   4.369108   1.484972
    13  O    3.661270   2.341814   4.137439   3.650116   2.410562
    14  H    3.539156   3.554996   4.522169   4.533105   3.226428
    15  H    1.068396   3.963504   2.167761   3.464563   6.908082
    16  H    3.979851   1.074341   3.441131   2.148602   4.179542
    17  H    2.085458   3.507674   1.069734   2.267548   7.572471
    18  H    3.556985   2.135332   2.290751   1.091405   6.424808
    19  H    6.174274   4.790988   6.738665   6.188681   1.088658
    20  H    6.902375   4.891547   7.192284   6.336449   1.059327
    21  H    6.129912   4.703005   6.683919   6.078708   1.091700
                    6          7          8          9         10
     6  C    0.000000
     7  C    1.422456   0.000000
     8  O    2.452529   3.766476   0.000000
     9  O    4.462186   3.078310   6.547508   0.000000
    10  O    2.361253   2.926173   2.277858   4.989449   0.000000
    11  C    1.558944   2.702221   1.212781   5.402640   1.336343
    12  C    3.712535   2.488403   5.560496   1.246185   3.824475
    13  O    2.376899   1.350229   4.230621   2.371178   2.664750
    14  H    2.145046   2.212088   2.994964   4.013366   0.990594
    15  H    2.180813   3.424086   2.490047   6.483099   3.903528
    16  H    3.499090   2.214555   5.935132   2.311546   5.031065
    17  H    3.360204   3.849078   4.738211   6.420629   5.641275
    18  H    3.955983   3.376915   6.224380   4.668286   6.117053
    19  H    4.834551   3.997012   5.960699   2.873687   4.019882
    20  H    5.625790   4.499074   7.157180   2.287367   5.128611
    21  H    4.756643   3.941431   5.956110   3.075935   3.746958
                   11         12         13         14         15
    11  C    0.000000
    12  C    4.395598   0.000000
    13  O    3.057531   1.370868   0.000000
    14  H    1.842774   2.853130   1.708266   0.000000
    15  H    2.617630   5.859046   4.549088   4.098316   0.000000
    16  H    4.903776   2.722749   2.672868   4.173216   5.035520
    17  H    4.537734   6.231067   5.198271   5.471115   2.339141
    18  H    5.498453   4.960288   4.469764   5.510622   4.415664
    19  H    4.937680   2.044090   2.707749   3.304925   6.970628
    20  H    6.018783   2.032794   3.254117   4.260353   7.802361
    21  H    4.826922   2.123510   2.641899   2.984293   6.889113
                   16         17         18         19         20
    16  H    0.000000
    17  H    4.385063   0.000000
    18  H    2.362755   2.767345   0.000000
    19  H    4.707189   7.793788   6.883797   0.000000
    20  H    4.470901   8.260042   6.812513   1.713960   0.000000
    21  H    4.621348   7.732449   6.737867   1.849786   1.812378
                   21
    21  H    0.000000
 Stoichiometry    C9H8O4
 Framework group  C1[X(C9H8O4)]
 Deg. of freedom    57
 Full point group                 C1      NOp   1
 Largest Abelian subgroup         C1      NOp   1
 Largest concise Abelian subgroup C1      NOp   1
                         Standard orientation:                         
 ---------------------------------------------------------------------
 Center     Atomic      Atomic             Coordinates (Angstroms)
 Number     Number       Type             X           Y           Z
 ---------------------------------------------------------------------
      1          6           0       -2.396700    0.596577   -0.128334
      2          6           0        0.217694    1.843791    0.123673
      3          6           0       -2.262902    2.036607   -0.047984
      4          6           0       -0.973042    2.661579    0.204157
      5          6           0        3.404562   -1.153745    0.040707
      6          6           0       -1.224489   -0.192104   -0.015823
      7          6           0        0.037824    0.463597   -0.014073
      8          8           0       -2.625286   -2.182740   -0.315886
      9          8           0        3.037956    1.102928   -0.271860
     10          8           0       -0.462996   -2.393886    0.368626
     11          6           0       -1.562658   -1.713171    0.032200
     12          6           0        2.482258    0.003292   -0.084839
     13          8           0        1.149651   -0.301921    0.016569
     14          1           0        0.244431   -1.700896    0.392889
     15          1           0       -3.374045    0.175327   -0.034444
     16          1           0        1.154979    2.366083    0.177672
     17          1           0       -3.222374    2.509541   -0.039074
     18          1           0       -0.771353    3.715283    0.404640
     19          1           0        3.286357   -1.690458   -0.899050
     20          1           0        4.375380   -0.730796    0.012396
     21          1           0        3.176728   -1.717675    0.947284
 ---------------------------------------------------------------------
 Rotational constants (GHZ):      1.0885452      0.6657397      0.4186087
 Leave Link  202 at Mon Aug  7 12:52:40 2023, MaxMem=   458752000 cpu:         0.0
 (Enter /opt/apps/apps/binapps/gaussian/g09d01_em64t/g09/l301.exe)
 Standard basis: 6-31G(d) (6D, 7F)
 Ernie: Thresh=  0.10000D-02 Tol=  0.10000D-05 Strict=F.
 There are   211 symmetry adapted cartesian basis functions of A   symmetry.
 There are   211 symmetry adapted basis functions of A   symmetry.
   211 basis functions,   396 primitive gaussians,   211 cartesian basis functions
    47 alpha electrons       47 beta electrons
       nuclear repulsion energy       762.9719374705 Hartrees.
 IExCor=  402 DFT=T Ex+Corr=B3LYP ExCW=0 ScaHFX=  0.200000
 ScaDFX=  0.800000  0.720000  1.000000  0.810000 ScalE2=  1.000000  1.000000
 IRadAn=      5 IRanWt=     -1 IRanGd=            0 ICorTp=0 IEmpDi=131
 NAtoms=   21 NActive=   21 NUniq=   21 SFac= 1.00D+00 NAtFMM=   60 NAOKFM=F Big=F
 Integral buffers will be    131072 words long.
 Raffenetti 2 integral format.
 Two-electron integral symmetry is turned on.
 R6Disp:  Grimme-D3 Dispersion energy=       -0.0170715512 Hartrees.
 Nuclear repulsion after empirical dispersion term =      762.9548659193 Hartrees.
 Leave Link  301 at Mon Aug  7 12:52:40 2023, MaxMem=   458752000 cpu:         0.0
 (Enter /opt/apps/apps/binapps/gaussian/g09d01_em64t/g09/l302.exe)
 NPDir=0 NMtPBC=     1 NCelOv=     1 NCel=       1 NClECP=     1 NCelD=      1
         NCelK=      1 NCelE2=     1 NClLst=     1 CellRange=     0.0.
 One-electron integrals computed using PRISM.
 NBasis=   211 RedAO= T EigKep=  6.43D-04  NBF=   211
 NBsUse=   211 1.00D-06 EigRej= -1.00D+00 NBFU=   211
 Precomputing XC quadrature grid using
 IXCGrd= 4 IRadAn=           5 IRanWt=          -1 IRanGd=           0 AccXCQ= 0.00D+00.
 Generated NRdTot=       0 NPtTot=           0 NUsed=           0 NTot=          32
 NSgBfM=   210   210   210   210   210 MxSgAt=    21 MxSgA2=    21.
 Leave Link  302 at Mon Aug  7 12:52:41 2023, MaxMem=   458752000 cpu:         0.6
 (Enter /opt/apps/apps/binapps/gaussian/g09d01_em64t/g09/l303.exe)
 DipDrv:  MaxL=1.
 Leave Link  303 at Mon Aug  7 12:52:41 2023, MaxMem=   458752000 cpu:         0.0
 (Enter /opt/apps/apps/binapps/gaussian/g09d01_em64t/g09/l401.exe)
 ExpMin= 1.61D-01 ExpMax= 5.48D+03 ExpMxC= 8.25D+02 IAcc=3 IRadAn=         5 AccDes= 0.00D+00
 Harris functional with IExCor=  402 and IRadAn=       5 diagonalized for initial guess.
 HarFok:  IExCor=  402 AccDes= 0.00D+00 IRadAn=         5 IDoV= 1 UseB2=F ITyADJ=14
 ICtDFT=  3500011 ScaDFX=  1.000000  1.000000  1.000000  1.000000
 FoFCou: FMM=F IPFlag=           0 FMFlag=      100000 FMFlg1=           0
         NFxFlg=           0 DoJE=T BraDBF=F KetDBF=T FulRan=T
         wScrn=  0.000000 ICntrl=     500 IOpCl=  0 I1Cent=   200000004 NGrid=           0
         NMat0=    1 NMatS0=      1 NMatT0=    0 NMatD0=    1 NMtDS0=    0 NMtDT0=    0
 Petite list used in FoFCou.
 Harris En= -648.684397749826    
 JPrj=0 DoOrth=F DoCkMO=F.
 Leave Link  401 at Mon Aug  7 12:52:49 2023, MaxMem=   458752000 cpu:         7.5
 (Enter /opt/apps/apps/binapps/gaussian/g09d01_em64t/g09/l502.exe)
 Closed shell SCF:
 Using DIIS extrapolation, IDIIS=  1040.
 Integral symmetry usage will be decided dynamically.
 Keep R1 ints in memory in canonical form, NReq=255049085.
 IVT=      154966 IEndB=      154966 NGot=   458752000 MDV=   208466874
 LenX=   208466874 LenY=   208421912
 Requested convergence on RMS density matrix=1.00D-08 within 128 cycles.
 Requested convergence on MAX density matrix=1.00D-06.
 Requested convergence on             energy=1.00D-06.
 No special actions if energy rises.
 FoFCou: FMM=F IPFlag=           0 FMFlag=           0 FMFlg1=           0
         NFxFlg=           0 DoJE=F BraDBF=F KetDBF=F FulRan=T
         wScrn=  0.000000 ICntrl=     600 IOpCl=  0 I1Cent=           0 NGrid=           0
         NMat0=    1 NMatS0=  22366 NMatT0=    0 NMatD0=    1 NMtDS0=    0 NMtDT0=    0
 Symmetry not used in FoFCou.
 Integral accuracy reduced to 1.0D-05 until final iterations.

 Cycle   1  Pass 0  IDiag  1:
 E= -648.304248767740    
 DIIS: error= 3.13D-02 at cycle   1 NSaved=   1.
 NSaved= 1 IEnMin= 1 EnMin= -648.304248767740     IErMin= 1 ErrMin= 3.13D-02
 ErrMax= 3.13D-02  0.00D+00 EMaxC= 1.00D-01 BMatC= 4.09D-01 BMatP= 4.09D-01
 IDIUse=3 WtCom= 6.87D-01 WtEn= 3.13D-01
 Coeff-Com:  0.100D+01
 Coeff-En:   0.100D+01
 Coeff:      0.100D+01
 Gap=     0.220 Goal=   None    Shift=    0.000
 GapD=    0.220 DampG=1.000 DampE=0.500 DampFc=0.5000 IDamp=-1.
 Damping current iteration by 5.00D-01
 RMSDP=7.43D-03 MaxDP=2.35D-01              OVMax= 2.90D-01

 Cycle   2  Pass 0  IDiag  1:
 E= -648.329794505468     Delta-E=       -0.025545737729 Rises=F Damp=T
 DIIS: error= 1.91D-02 at cycle   2 NSaved=   2.
 NSaved= 2 IEnMin= 2 EnMin= -648.329794505468     IErMin= 2 ErrMin= 1.91D-02
 ErrMax= 1.91D-02  0.00D+00 EMaxC= 1.00D-01 BMatC= 1.20D-01 BMatP= 4.09D-01
 IDIUse=3 WtCom= 8.09D-01 WtEn= 1.91D-01
 Coeff-Com:  0.309D+00 0.691D+00
 Coeff-En:   0.469D+00 0.531D+00
 Coeff:      0.340D+00 0.660D+00
 Gap=     0.201 Goal=   None    Shift=    0.000
 RMSDP=2.62D-03 MaxDP=7.19D-02 DE=-2.55D-02 OVMax= 2.27D-01

 Cycle   3  Pass 0  IDiag  1:
 E= -648.585976318899     Delta-E=       -0.256181813431 Rises=F Damp=F
 DIIS: error= 1.42D-02 at cycle   3 NSaved=   3.
 NSaved= 3 IEnMin= 3 EnMin= -648.585976318899     IErMin= 3 ErrMin= 1.42D-02
 ErrMax= 1.42D-02  0.00D+00 EMaxC= 1.00D-01 BMatC= 7.91D-02 BMatP= 1.20D-01
 IDIUse=3 WtCom= 8.58D-01 WtEn= 1.42D-01
 Coeff-Com:  0.127D+00 0.430D+00 0.443D+00
 Coeff-En:   0.000D+00 0.000D+00 0.100D+01
 Coeff:      0.109D+00 0.369D+00 0.522D+00
 Gap=     0.205 Goal=   None    Shift=    0.000
 RMSDP=1.63D-03 MaxDP=5.50D-02 DE=-2.56D-01 OVMax= 9.57D-02

 Cycle   4  Pass 0  IDiag  1:
 E= -648.644026309591     Delta-E=       -0.058049990692 Rises=F Damp=F
 DIIS: error= 5.80D-03 at cycle   4 NSaved=   4.
 NSaved= 4 IEnMin= 4 EnMin= -648.644026309591     IErMin= 4 ErrMin= 5.80D-03
 ErrMax= 5.80D-03  0.00D+00 EMaxC= 1.00D-01 BMatC= 1.51D-02 BMatP= 7.91D-02
 IDIUse=3 WtCom= 9.42D-01 WtEn= 5.80D-02
 Coeff-Com:  0.339D-01 0.777D-01 0.307D+00 0.581D+00
 Coeff-En:   0.000D+00 0.000D+00 0.175D+00 0.825D+00
 Coeff:      0.320D-01 0.732D-01 0.300D+00 0.595D+00
 Gap=     0.196 Goal=   None    Shift=    0.000
 RMSDP=5.37D-04 MaxDP=2.00D-02 DE=-5.80D-02 OVMax= 2.58D-02

 Cycle   5  Pass 0  IDiag  1:
 E= -648.655379424559     Delta-E=       -0.011353114968 Rises=F Damp=F
 DIIS: error= 1.41D-03 at cycle   5 NSaved=   5.
 NSaved= 5 IEnMin= 5 EnMin= -648.655379424559     IErMin= 5 ErrMin= 1.41D-03
 ErrMax= 1.41D-03  0.00D+00 EMaxC= 1.00D-01 BMatC= 7.88D-04 BMatP= 1.51D-02
 IDIUse=3 WtCom= 9.86D-01 WtEn= 1.41D-02
 Coeff-Com:  0.694D-02 0.215D-03 0.118D+00 0.328D+00 0.547D+00
 Coeff-En:   0.000D+00 0.000D+00 0.000D+00 0.000D+00 0.100D+01
 Coeff:      0.684D-02 0.212D-03 0.116D+00 0.323D+00 0.554D+00
 Gap=     0.197 Goal=   None    Shift=    0.000
 RMSDP=1.39D-04 MaxDP=4.36D-03 DE=-1.14D-02 OVMax= 5.40D-03

 Cycle   6  Pass 0  IDiag  1:
 E= -648.655966956457     Delta-E=       -0.000587531898 Rises=F Damp=F
 DIIS: error= 3.68D-04 at cycle   6 NSaved=   6.
 NSaved= 6 IEnMin= 6 EnMin= -648.655966956457     IErMin= 6 ErrMin= 3.68D-04
 ErrMax= 3.68D-04  0.00D+00 EMaxC= 1.00D-01 BMatC= 6.95D-05 BMatP= 7.88D-04
 IDIUse=3 WtCom= 9.96D-01 WtEn= 3.68D-03
 Coeff-Com:  0.173D-02-0.525D-02 0.425D-01 0.129D+00 0.306D+00 0.526D+00
 Coeff-En:   0.000D+00 0.000D+00 0.000D+00 0.000D+00 0.000D+00 0.100D+01
 Coeff:      0.172D-02-0.523D-02 0.423D-01 0.128D+00 0.305D+00 0.528D+00
 Gap=     0.197 Goal=   None    Shift=    0.000
 RMSDP=4.25D-05 MaxDP=1.43D-03 DE=-5.88D-04 OVMax= 1.64D-03

 Cycle   7  Pass 0  IDiag  1:
 E= -648.656015251922     Delta-E=       -0.000048295465 Rises=F Damp=F
 DIIS: error= 1.93D-04 at cycle   7 NSaved=   7.
 NSaved= 7 IEnMin= 7 EnMin= -648.656015251922     IErMin= 7 ErrMin= 1.93D-04
 ErrMax= 1.93D-04  0.00D+00 EMaxC= 1.00D-01 BMatC= 1.02D-05 BMatP= 6.95D-05
 IDIUse=3 WtCom= 9.98D-01 WtEn= 1.93D-03
 Coeff-Com:  0.579D-03-0.335D-02 0.157D-01 0.478D-01 0.142D+00 0.335D+00
 Coeff-Com:  0.463D+00
 Coeff-En:   0.000D+00 0.000D+00 0.000D+00 0.000D+00 0.000D+00 0.658D-01
 Coeff-En:   0.934D+00
 Coeff:      0.578D-03-0.334D-02 0.157D-01 0.477D-01 0.141D+00 0.334D+00
 Coeff:      0.464D+00
 Gap=     0.197 Goal=   None    Shift=    0.000
 RMSDP=1.51D-05 MaxDP=6.05D-04 DE=-4.83D-05 OVMax= 1.16D-03

 Cycle   8  Pass 0  IDiag  1:
 E= -648.656022734819     Delta-E=       -0.000007482897 Rises=F Damp=F
 DIIS: error= 4.35D-05 at cycle   8 NSaved=   8.
 NSaved= 8 IEnMin= 8 EnMin= -648.656022734819     IErMin= 8 ErrMin= 4.35D-05
 ErrMax= 4.35D-05  0.00D+00 EMaxC= 1.00D-01 BMatC= 1.10D-06 BMatP= 1.02D-05
 IDIUse=1 WtCom= 1.00D+00 WtEn= 0.00D+00
 Coeff-Com:  0.186D-03-0.146D-02 0.400D-02 0.114D-01 0.472D-01 0.136D+00
 Coeff-Com:  0.285D+00 0.518D+00
 Coeff:      0.186D-03-0.146D-02 0.400D-02 0.114D-01 0.472D-01 0.136D+00
 Coeff:      0.285D+00 0.518D+00
 Gap=     0.197 Goal=   None    Shift=    0.000
 RMSDP=4.91D-06 MaxDP=1.67D-04 DE=-7.48D-06 OVMax= 2.87D-04

 Initial convergence to 1.0D-05 achieved.  Increase integral accuracy.
 Cycle   9  Pass 1  IDiag  1:
 E= -648.656033937666     Delta-E=       -0.000011202847 Rises=F Damp=F
 DIIS: error= 1.17D-05 at cycle   1 NSaved=   1.
 NSaved= 1 IEnMin= 1 EnMin= -648.656033937666     IErMin= 1 ErrMin= 1.17D-05
 ErrMax= 1.17D-05  0.00D+00 EMaxC= 1.00D-01 BMatC= 5.43D-08 BMatP= 5.43D-08
 IDIUse=1 WtCom= 1.00D+00 WtEn= 0.00D+00
 Coeff-Com:  0.100D+01
 Coeff:      0.100D+01
 Gap=     0.197 Goal=   None    Shift=    0.000
 RMSDP=4.91D-06 MaxDP=1.67D-04 DE=-1.12D-05 OVMax= 1.84D-04

 Cycle  10  Pass 1  IDiag  1:
 E= -648.656033833671     Delta-E=        0.000000103995 Rises=F Damp=F
 DIIS: error= 2.85D-05 at cycle   2 NSaved=   2.
 NSaved= 2 IEnMin= 1 EnMin= -648.656033937666     IErMin= 1 ErrMin= 1.17D-05
 ErrMax= 2.85D-05  0.00D+00 EMaxC= 1.00D-01 BMatC= 1.82D-07 BMatP= 5.43D-08
 IDIUse=1 WtCom= 1.00D+00 WtEn= 0.00D+00
 Coeff-Com:  0.654D+00 0.346D+00
 Coeff:      0.654D+00 0.346D+00
 Gap=     0.197 Goal=   None    Shift=    0.000
 RMSDP=1.94D-06 MaxDP=7.81D-05 DE= 1.04D-07 OVMax= 1.53D-04

 Cycle  11  Pass 1  IDiag  1:
 E= -648.656033985085     Delta-E=       -0.000000151414 Rises=F Damp=F
 DIIS: error= 3.97D-06 at cycle   3 NSaved=   3.
 NSaved= 3 IEnMin= 3 EnMin= -648.656033985085     IErMin= 3 ErrMin= 3.97D-06
 ErrMax= 3.97D-06  0.00D+00 EMaxC= 1.00D-01 BMatC= 5.68D-09 BMatP= 5.43D-08
 IDIUse=1 WtCom= 1.00D+00 WtEn= 0.00D+00
 Coeff-Com:  0.305D+00 0.201D+00 0.494D+00
 Coeff:      0.305D+00 0.201D+00 0.494D+00
 Gap=     0.197 Goal=   None    Shift=    0.000
 RMSDP=4.15D-07 MaxDP=1.32D-05 DE=-1.51D-07 OVMax= 1.93D-05

 Cycle  12  Pass 1  IDiag  1:
 E= -648.656033989131     Delta-E=       -0.000000004046 Rises=F Damp=F
 DIIS: error= 1.20D-06 at cycle   4 NSaved=   4.
 NSaved= 4 IEnMin= 4 EnMin= -648.656033989131     IErMin= 4 ErrMin= 1.20D-06
 ErrMax= 1.20D-06  0.00D+00 EMaxC= 1.00D-01 BMatC= 6.87D-10 BMatP= 5.68D-09
 IDIUse=1 WtCom= 1.00D+00 WtEn= 0.00D+00
 Coeff-Com:  0.567D-01 0.560D-01 0.283D+00 0.604D+00
 Coeff:      0.567D-01 0.560D-01 0.283D+00 0.604D+00
 Gap=     0.197 Goal=   None    Shift=    0.000
 RMSDP=1.46D-07 MaxDP=5.38D-06 DE=-4.05D-09 OVMax= 8.48D-06

 Cycle  13  Pass 1  IDiag  1:
 E= -648.656033989647     Delta-E=       -0.000000000515 Rises=F Damp=F
 DIIS: error= 6.62D-07 at cycle   5 NSaved=   5.
 NSaved= 5 IEnMin= 5 EnMin= -648.656033989647     IErMin= 5 ErrMin= 6.62D-07
 ErrMax= 6.62D-07  0.00D+00 EMaxC= 1.00D-01 BMatC= 1.19D-10 BMatP= 6.87D-10
 IDIUse=1 WtCom= 1.00D+00 WtEn= 0.00D+00
 Coeff-Com:  0.159D-02 0.130D-01 0.112D+00 0.370D+00 0.503D+00
 Coeff:      0.159D-02 0.130D-01 0.112D+00 0.370D+00 0.503D+00
 Gap=     0.197 Goal=   None    Shift=    0.000
 RMSDP=5.87D-08 MaxDP=1.81D-06 DE=-5.15D-10 OVMax= 3.78D-06

 Cycle  14  Pass 1  IDiag  1:
 E= -648.656033989718     Delta-E=       -0.000000000071 Rises=F Damp=F
 DIIS: error= 2.15D-07 at cycle   6 NSaved=   6.
 NSaved= 6 IEnMin= 6 EnMin= -648.656033989718     IErMin= 6 ErrMin= 2.15D-07
 ErrMax= 2.15D-07  0.00D+00 EMaxC= 1.00D-01 BMatC= 1.69D-11 BMatP= 1.19D-10
 IDIUse=1 WtCom= 1.00D+00 WtEn= 0.00D+00
 Coeff-Com: -0.613D-02 0.176D-02 0.348D-01 0.160D+00 0.319D+00 0.490D+00
 Coeff:     -0.613D-02 0.176D-02 0.348D-01 0.160D+00 0.319D+00 0.490D+00
 Gap=     0.197 Goal=   None    Shift=    0.000
 RMSDP=2.03D-08 MaxDP=7.55D-07 DE=-7.14D-11 OVMax= 1.42D-06

 Cycle  15  Pass 1  IDiag  1:
 E= -648.656033989756     Delta-E=       -0.000000000038 Rises=F Damp=F
 DIIS: error= 5.39D-08 at cycle   7 NSaved=   7.
 NSaved= 7 IEnMin= 7 EnMin= -648.656033989756     IErMin= 7 ErrMin= 5.39D-08
 ErrMax= 5.39D-08  0.00D+00 EMaxC= 1.00D-01 BMatC= 1.57D-12 BMatP= 1.69D-11
 IDIUse=1 WtCom= 1.00D+00 WtEn= 0.00D+00
 Coeff-Com: -0.405D-02-0.104D-03 0.958D-02 0.629D-01 0.146D+00 0.299D+00
 Coeff-Com:  0.486D+00
 Coeff:     -0.405D-02-0.104D-03 0.958D-02 0.629D-01 0.146D+00 0.299D+00
 Coeff:      0.486D+00
 Gap=     0.197 Goal=   None    Shift=    0.000
 RMSDP=5.75D-09 MaxDP=1.95D-07 DE=-3.82D-11 OVMax= 2.46D-07

 SCF Done:  E(RB3LYP) =  -648.656033990     A.U. after   15 cycles
            NFock= 15  Conv=0.58D-08     -V/T= 2.0097
 KE= 6.424390443434D+02 PE=-3.039410843407D+03 EE= 9.853608991544D+02
 Leave Link  502 at Mon Aug  7 12:54:42 2023, MaxMem=   458752000 cpu:       113.0
 (Enter /opt/apps/apps/binapps/gaussian/g09d01_em64t/g09/l601.exe)
 Copying SCF densities to generalized density rwf, IOpCl= 0 IROHF=0.

 **********************************************************************

            Population analysis using the SCF density.

 **********************************************************************

 Orbital symmetries:
       Occupied  (A) (A) (A) (A) (A) (A) (A) (A) (A) (A) (A) (A)
                 (A) (A) (A) (A) (A) (A) (A) (A) (A) (A) (A) (A)
                 (A) (A) (A) (A) (A) (A) (A) (A) (A) (A) (A) (A)
                 (A) (A) (A) (A) (A) (A) (A) (A) (A) (A) (A)
       Virtual   (A) (A) (A) (A) (A) (A) (A) (A) (A) (A) (A) (A)
                 (A) (A) (A) (A) (A) (A) (A) (A) (A) (A) (A) (A)
                 (A) (A) (A) (A) (A) (A) (A) (A) (A) (A) (A) (A)
                 (A) (A) (A) (A) (A) (A) (A) (A) (A) (A) (A) (A)
                 (A) (A) (A) (A) (A) (A) (A) (A) (A) (A) (A) (A)
                 (A) (A) (A) (A) (A) (A) (A) (A) (A) (A) (A) (A)
                 (A) (A) (A) (A) (A) (A) (A) (A) (A) (A) (A) (A)
                 (A) (A) (A) (A) (A) (A) (A) (A) (A) (A) (A) (A)
                 (A) (A) (A) (A) (A) (A) (A) (A) (A) (A) (A) (A)
                 (A) (A) (A) (A) (A) (A) (A) (A) (A) (A) (A) (A)
                 (A) (A) (A) (A) (A) (A) (A) (A) (A) (A) (A) (A)
                 (A) (A) (A) (A) (A) (A) (A) (A) (A) (A) (A) (A)
                 (A) (A) (A) (A) (A) (A) (A) (A) (A) (A) (A) (A)
                 (A) (A) (A) (A) (A) (A) (A) (A)
 The electronic state is 1-A.
 Alpha  occ. eigenvalues --  -19.25528 -19.19036 -19.16873 -19.13941 -10.36047
 Alpha  occ. eigenvalues --  -10.32890 -10.29440 -10.22932 -10.22917 -10.21890
 Alpha  occ. eigenvalues --  -10.21789 -10.21723 -10.21474  -1.15649  -1.10087
 Alpha  occ. eigenvalues --   -1.04895  -1.02108  -0.86999  -0.80491  -0.77388
 Alpha  occ. eigenvalues --   -0.75494  -0.69037  -0.64575  -0.61509  -0.59915
 Alpha  occ. eigenvalues --   -0.54385  -0.52004  -0.51559  -0.51474  -0.48866
 Alpha  occ. eigenvalues --   -0.46500  -0.45784  -0.45523  -0.44228  -0.44017
 Alpha  occ. eigenvalues --   -0.43698  -0.40631  -0.39894  -0.38937  -0.37716
 Alpha  occ. eigenvalues --   -0.35167  -0.34823  -0.31508  -0.29330  -0.28082
 Alpha  occ. eigenvalues --   -0.26754  -0.25613
 Alpha virt. eigenvalues --   -0.05938  -0.04409  -0.00733   0.03742   0.06558
 Alpha virt. eigenvalues --    0.08659   0.11724   0.12611   0.13403   0.14442
 Alpha virt. eigenvalues --    0.14810   0.16246   0.17374   0.17967   0.20761
 Alpha virt. eigenvalues --    0.22136   0.24216   0.26738   0.27996   0.29522
 Alpha virt. eigenvalues --    0.30568   0.35216   0.35850   0.40198   0.45237
 Alpha virt. eigenvalues --    0.47583   0.48049   0.49221   0.51358   0.51796
 Alpha virt. eigenvalues --    0.52854   0.53686   0.54781   0.54903   0.56708
 Alpha virt. eigenvalues --    0.58094   0.59242   0.59753   0.60069   0.61318
 Alpha virt. eigenvalues --    0.61733   0.63917   0.64290   0.66042   0.68508
 Alpha virt. eigenvalues --    0.69239   0.73348   0.76447   0.77449   0.79337
 Alpha virt. eigenvalues --    0.82128   0.82334   0.83675   0.84554   0.87232
 Alpha virt. eigenvalues --    0.88569   0.88787   0.90066   0.90947   0.92025
 Alpha virt. eigenvalues --    0.93443   0.94808   0.94821   0.97250   0.98947
 Alpha virt. eigenvalues --    1.01614   1.02783   1.04275   1.07303   1.09546
 Alpha virt. eigenvalues --    1.10659   1.12499   1.14366   1.19553   1.22442
 Alpha virt. eigenvalues --    1.25023   1.26039   1.27970   1.30711   1.32908
 Alpha virt. eigenvalues --    1.34985   1.36350   1.37760   1.40225   1.42024
 Alpha virt. eigenvalues --    1.44877   1.45584   1.48581   1.52346   1.54962
 Alpha virt. eigenvalues --    1.58124   1.60535   1.64267   1.65858   1.66646
 Alpha virt. eigenvalues --    1.69494   1.73259   1.74659   1.77410   1.78121
 Alpha virt. eigenvalues --    1.78565   1.79831   1.81596   1.83945   1.86655
 Alpha virt. eigenvalues --    1.87405   1.89296   1.91136   1.92552   1.93792
 Alpha virt. eigenvalues --    1.95034   1.98215   2.00351   2.00843   2.03567
 Alpha virt. eigenvalues --    2.07211   2.08262   2.11714   2.13453   2.16785
 Alpha virt. eigenvalues --    2.19086   2.22678   2.24169   2.26970   2.28001
 Alpha virt. eigenvalues --    2.32215   2.33556   2.36459   2.41959   2.46075
 Alpha virt. eigenvalues --    2.49592   2.53606   2.54196   2.55799   2.59422
 Alpha virt. eigenvalues --    2.60617   2.65559   2.66248   2.68087   2.70437
 Alpha virt. eigenvalues --    2.74446   2.78805   2.79857   2.84906   2.88598
 Alpha virt. eigenvalues --    2.91955   2.97579   3.04076   3.10184   3.29080
 Alpha virt. eigenvalues --    3.35310   3.92166   3.97076   4.02328   4.07511
 Alpha virt. eigenvalues --    4.10008   4.13220   4.24661   4.32987   4.34498
 Alpha virt. eigenvalues --    4.41559   4.44840   4.53823   4.71292
          Condensed to atoms (all electrons):
               1          2          3          4          5          6
     1  C    4.989913  -0.034572   0.468040  -0.022545   0.000002   0.482488
     2  C   -0.034572   5.041986  -0.028342   0.477646   0.000452  -0.053760
     3  C    0.468040  -0.028342   4.957182   0.514517   0.000000  -0.031793
     4  C   -0.022545   0.477646   0.514517   4.918608   0.000005  -0.029305
     5  C    0.000002   0.000452   0.000000   0.000005   5.241147  -0.000330
     6  C    0.482488  -0.053760  -0.031793  -0.029305  -0.000330   5.225351
     7  C   -0.041376   0.529011  -0.035338  -0.023480   0.002639   0.480415
     8  O    0.006496  -0.000032   0.000783  -0.000009   0.000000  -0.094592
     9  O    0.000001  -0.003879  -0.000003   0.000542  -0.096672  -0.000036
    10  O    0.006486  -0.000148  -0.000074   0.000001   0.000144  -0.092624
    11  C   -0.028971   0.003090   0.005217  -0.000073  -0.000007   0.264900
    12  C    0.000011   0.002236  -0.000005   0.000494   0.378696   0.001698
    13  O    0.003104  -0.062132   0.000113   0.003227  -0.087722  -0.049760
    14  H   -0.000280   0.001092  -0.000043  -0.000038  -0.000243   0.003320
    15  H    0.367335   0.000163  -0.038788   0.003576   0.000000  -0.042700
    16  H    0.000337   0.347297   0.003490  -0.034283   0.000556   0.003261
    17  H   -0.043332   0.003484   0.360140  -0.037801   0.000000   0.004725
    18  H    0.002820  -0.039617  -0.034029   0.358674   0.000000   0.000550
    19  H    0.000000  -0.000008   0.000000   0.000000   0.352977   0.000012
    20  H    0.000000   0.000005   0.000000   0.000000   0.370393   0.000004
    21  H    0.000000  -0.000056   0.000000  -0.000001   0.352695   0.000028
               7          8          9         10         11         12
     1  C   -0.041376   0.006496   0.000001   0.006486  -0.028971   0.000011
     2  C    0.529011  -0.000032  -0.003879  -0.000148   0.003090   0.002236
     3  C   -0.035338   0.000783  -0.000003  -0.000074   0.005217  -0.000005
     4  C   -0.023480  -0.000009   0.000542   0.000001  -0.000073   0.000494
     5  C    0.002639   0.000000  -0.096672   0.000144  -0.000007   0.378696
     6  C    0.480415  -0.094592  -0.000036  -0.092624   0.264900   0.001698
     7  C    4.682009   0.001252  -0.005485  -0.005782  -0.032313  -0.019384
     8  O    0.001252   7.992057   0.000000  -0.061092   0.592842   0.000000
     9  O   -0.005485   0.000000   8.038235  -0.000003  -0.000001   0.537182
    10  O   -0.005782  -0.061092  -0.000003   8.274720   0.278345  -0.000078
    11  C   -0.032313   0.592842  -0.000001   0.278345   4.349504  -0.000009
    12  C   -0.019384   0.000000   0.537182  -0.000078  -0.000009   4.371701
    13  O    0.184400  -0.000017  -0.052121  -0.022169  -0.002505   0.205805
    14  H   -0.008811   0.002839   0.000191   0.213069  -0.024802  -0.001172
    15  H    0.003915   0.012314   0.000000   0.000398  -0.006369   0.000001
    16  H   -0.028749   0.000000   0.020164   0.000003  -0.000029   0.002635
    17  H    0.000574  -0.000002   0.000000   0.000001  -0.000136   0.000000
    18  H    0.004194   0.000000  -0.000008   0.000000   0.000006  -0.000011
    19  H   -0.000187   0.000000   0.001214   0.000005   0.000002  -0.027198
    20  H   -0.000043   0.000000   0.006202   0.000001   0.000000  -0.031889
    21  H   -0.000014   0.000000   0.002660   0.000015  -0.000008  -0.026436
              13         14         15         16         17         18
     1  C    0.003104  -0.000280   0.367335   0.000337  -0.043332   0.002820
     2  C   -0.062132   0.001092   0.000163   0.347297   0.003484  -0.039617
     3  C    0.000113  -0.000043  -0.038788   0.003490   0.360140  -0.034029
     4  C    0.003227  -0.000038   0.003576  -0.034283  -0.037801   0.358674
     5  C   -0.087722  -0.000243   0.000000   0.000556   0.000000   0.000000
     6  C   -0.049760   0.003320  -0.042700   0.003261   0.004725   0.000550
     7  C    0.184400  -0.008811   0.003915  -0.028749   0.000574   0.004194
     8  O   -0.000017   0.002839   0.012314   0.000000  -0.000002   0.000000
     9  O   -0.052121   0.000191   0.000000   0.020164   0.000000  -0.000008
    10  O   -0.022169   0.213069   0.000398   0.000003   0.000001   0.000000
    11  C   -0.002505  -0.024802  -0.006369  -0.000029  -0.000136   0.000006
    12  C    0.205805  -0.001172   0.000001   0.002635   0.000000  -0.000011
    13  O    8.375639   0.051846  -0.000036  -0.008084   0.000002  -0.000077
    14  H    0.051846   0.314496  -0.000083  -0.000042   0.000000   0.000001
    15  H   -0.000036  -0.000083   0.524215   0.000007  -0.004994  -0.000095
    16  H   -0.008084  -0.000042   0.000007   0.498038  -0.000101  -0.004881
    17  H    0.000002   0.000000  -0.004994  -0.000101   0.575202  -0.002820
    18  H   -0.000077   0.000001  -0.000095  -0.004881  -0.002820   0.561427
    19  H    0.002322   0.000211   0.000000  -0.000013   0.000000   0.000000
    20  H    0.003443   0.000007   0.000000   0.000010   0.000000   0.000000
    21  H    0.003502   0.000806   0.000000  -0.000034   0.000000   0.000000
              19         20         21
     1  C    0.000000   0.000000   0.000000
     2  C   -0.000008   0.000005  -0.000056
     3  C    0.000000   0.000000   0.000000
     4  C    0.000000   0.000000  -0.000001
     5  C    0.352977   0.370393   0.352695
     6  C    0.000012   0.000004   0.000028
     7  C   -0.000187  -0.000043  -0.000014
     8  O    0.000000   0.000000   0.000000
     9  O    0.001214   0.006202   0.002660
    10  O    0.000005   0.000001   0.000015
    11  C    0.000002   0.000000  -0.000008
    12  C   -0.027198  -0.031889  -0.026436
    13  O    0.002322   0.003443   0.003502
    14  H    0.000211   0.000007   0.000806
    15  H    0.000000   0.000000   0.000000
    16  H   -0.000013   0.000010  -0.000034
    17  H    0.000000   0.000000   0.000000
    18  H    0.000000   0.000000   0.000000
    19  H    0.515907  -0.024164  -0.015525
    20  H   -0.024164   0.481259  -0.016945
    21  H   -0.015525  -0.016945   0.514880
 Mulliken charges:
               1
     1  C   -0.155958
     2  C   -0.183918
     3  C   -0.141069
     4  C   -0.129756
     5  C   -0.514734
     6  C   -0.071851
     7  C    0.312552
     8  O   -0.452839
     9  O   -0.448184
    10  O   -0.591217
    11  C    0.601315
    12  C    0.605724
    13  O   -0.548779
    14  H    0.447635
    15  H    0.181142
    16  H    0.200417
    17  H    0.145059
    18  H    0.153865
    19  H    0.194445
    20  H    0.211716
    21  H    0.184434
 Sum of Mulliken charges =   0.00000
 Mulliken charges with hydrogens summed into heavy atoms:
               1
     1  C    0.025184
     2  C    0.016499
     3  C    0.003990
     4  C    0.024109
     5  C    0.075861
     6  C   -0.071851
     7  C    0.312552
     8  O   -0.452839
     9  O   -0.448184
    10  O   -0.143582
    11  C    0.601315
    12  C    0.605724
    13  O   -0.548779
 Electronic spatial extent (au):  <R**2>=           2517.9066
 Charge=              0.0000 electrons
 Dipole moment (field-independent basis, Debye):
    X=              2.3544    Y=              2.3274    Z=              0.9628  Tot=              3.4477
 Quadrupole moment (field-independent basis, Debye-Ang):
   XX=            -73.9577   YY=            -78.9464   ZZ=            -73.9834
   XY=            -16.4352   XZ=             -0.5583   YZ=              0.9287
 Traceless Quadrupole moment (field-independent basis, Debye-Ang):
   XX=              1.6715   YY=             -3.3172   ZZ=              1.6458
   XY=            -16.4352   XZ=             -0.5583   YZ=              0.9287
 Octapole moment (field-independent basis, Debye-Ang**2):
  XXX=             16.9508  YYY=             33.2005  ZZZ=             -0.9343  XYY=             16.9837
  XXY=             -3.1576  XXZ=              7.1900  XZZ=              9.5999  YZZ=            -11.1800
  YYZ=              4.4791  XYZ=              5.0707
 Hexadecapole moment (field-independent basis, Debye-Ang**3):
 XXXX=          -1870.3780 YYYY=          -1198.1022 ZZZZ=            -88.4980 XXXY=           -135.1742
 XXXZ=             -7.6827 YYYX=            -31.8049 YYYZ=             14.8159 ZZZX=             -1.7346
 ZZZY=             -2.1412 XXYY=           -565.0572 XXZZ=           -334.9191 YYZZ=           -219.9625
 XXYZ=             -3.6941 YYXZ=             -4.7623 ZZXY=             11.7612
 N-N= 7.629548659193D+02 E-N=-3.039410845610D+03  KE= 6.424390443434D+02
 No NMR shielding tensors so no spin-rotation constants.
 Leave Link  601 at Mon Aug  7 12:54:42 2023, MaxMem=   458752000 cpu:         0.2
 (Enter /opt/apps/apps/binapps/gaussian/g09d01_em64t/g09/l602.exe)
 FitSet:  NAtFit=    21 NAtPot=    21 NAtFrz=     0 MDM=    25 TotChg=   0.00000
 Merz-Kollman atomic radii used.

 **********************************************************************

            Electrostatic Properties Using The SCF Density

 **********************************************************************

       Atomic Center    1 is at  -2.396700  0.596577 -0.128334
       Atomic Center    2 is at   0.217694  1.843791  0.123673
       Atomic Center    3 is at  -2.262902  2.036607 -0.047984
       Atomic Center    4 is at  -0.973042  2.661579  0.204157
       Atomic Center    5 is at   3.404562 -1.153745  0.040707
       Atomic Center    6 is at  -1.224489 -0.192104 -0.015823
       Atomic Center    7 is at   0.037824  0.463597 -0.014073
       Atomic Center    8 is at  -2.625286 -2.182740 -0.315886
       Atomic Center    9 is at   3.037956  1.102928 -0.271860
       Atomic Center   10 is at  -0.462996 -2.393886  0.368626
       Atomic Center   11 is at  -1.562658 -1.713171  0.032200
       Atomic Center   12 is at   2.482258  0.003292 -0.084839
       Atomic Center   13 is at   1.149651 -0.301921  0.016569
       Atomic Center   14 is at   0.244431 -1.700896  0.392889
       Atomic Center   15 is at  -3.374045  0.175327 -0.034444
       Atomic Center   16 is at   1.154979  2.366083  0.177672
       Atomic Center   17 is at  -3.222374  2.509541 -0.039074
       Atomic Center   18 is at  -0.771353  3.715283  0.404640
       Atomic Center   19 is at   3.286357 -1.690458 -0.899050
       Atomic Center   20 is at   4.375380 -0.730796  0.012396
       Atomic Center   21 is at   3.176728 -1.717675  0.947284
    1040 points will be used for fitting atomic charges
 Fitting point charges to electrostatic potential
 Charges from ESP fit, RMS=   0.00094 RRMS=   0.05539:
 ESP charges:
               1
     1  C   -0.007764
     2  C   -0.333190
     3  C   -0.166450
     4  C   -0.086040
     5  C   -0.558186
     6  C   -0.408477
     7  C    0.479274
     8  O   -0.482841
     9  O   -0.492759
    10  O   -0.573670
    11  C    0.763447
    12  C    0.771713
    13  O   -0.431023
    14  H    0.395462
    15  H    0.132405
    16  H    0.206592
    17  H    0.133718
    18  H    0.146315
    19  H    0.167429
    20  H    0.176547
    21  H    0.167499
 Sum of ESP charges =   0.00000
 ESP charges with hydrogens summed into heavy atoms:
               1
     1  C    0.124641
     2  C   -0.126598
     3  C   -0.032732
     4  C    0.060275
     5  C   -0.046711
     6  C   -0.408477
     7  C    0.479274
     8  O   -0.482841
     9  O   -0.492759
    10  O   -0.178208
    11  C    0.763447
    12  C    0.771713
    13  O   -0.431023
 Charge=   0.00000 Dipole=     2.3403     2.3296     0.9896 Tot=     3.4472
 -----------------------------------------------------------------

              Electrostatic Properties (Atomic Units)

 -----------------------------------------------------------------
    Center     Electric         -------- Electric Field --------
               Potential          X             Y             Z
 -----------------------------------------------------------------
    1 Atom    -14.710180
    2 Atom    -14.710251
    3 Atom    -14.706724
    4 Atom    -14.696191
    5 Atom    -14.711199
    6 Atom    -14.697356
    7 Atom    -14.631147
    8 Atom    -22.327980
    9 Atom    -22.299552
   10 Atom    -22.271697
   11 Atom    -14.596151
   12 Atom    -14.564964
   13 Atom    -22.202927
   14 Atom     -0.946890
   15 Atom     -1.087166
   16 Atom     -1.077437
   17 Atom     -1.092557
   18 Atom     -1.079831
   19 Atom     -1.068100
   20 Atom     -1.084770
   21 Atom     -1.067994
 -----------------------------------------------------------------
 Leave Link  602 at Mon Aug  7 12:54:42 2023, MaxMem=   458752000 cpu:         0.2
 (Enter /opt/apps/apps/binapps/gaussian/g09d01_em64t/g09/l701.exe)
 Compute integral first derivatives.
 ... and contract with generalized density number  0.
 R6Disp: Adding Grimme-D3 dispersion energy 1st derivatives to the gradient.
 Leave Link  701 at Mon Aug  7 12:54:42 2023, MaxMem=   458752000 cpu:         0.2
 (Enter /opt/apps/apps/binapps/gaussian/g09d01_em64t/g09/l702.exe)
 L702 exits ... SP integral derivatives will be done elsewhere.
 Leave Link  702 at Mon Aug  7 12:54:43 2023, MaxMem=   458752000 cpu:         0.0
 (Enter /opt/apps/apps/binapps/gaussian/g09d01_em64t/g09/l703.exe)
 Compute integral first derivatives, UseDBF=F ICtDFT=           0.
 Integral derivatives from FoFJK, PRISM(SPDF).
 Calling FoFJK, ICntrl=      2127 FMM=F ISym2X=0 I1Cent= 0 IOpClX= 0 NMat=1 NMatS=1 NMatT=0.
 FoFJK:  IHMeth= 1 ICntrl=    2127 DoSepK=F KAlg= 0 I1Cent=   0 FoldK=F
 IRaf=         0 NMat=   1 IRICut=       1 DoRegI=T DoRafI=F ISym2E= 0.
 FoFCou: FMM=F IPFlag=           0 FMFlag=      100000 FMFlg1=         800
         NFxFlg=           0 DoJE=F BraDBF=F KetDBF=F FulRan=T
         wScrn=  0.000000 ICntrl=    2127 IOpCl=  0 I1Cent=           0 NGrid=           0
         NMat0=    1 NMatS0=      1 NMatT0=    0 NMatD0=    1 NMtDS0=    0 NMtDT0=    0
 Symmetry not used in FoFCou.
 Leave Link  703 at Mon Aug  7 12:55:11 2023, MaxMem=   458752000 cpu:        28.7
 (Enter /opt/apps/apps/binapps/gaussian/g09d01_em64t/g09/l716.exe)
 Dipole        = 9.26284390D-01 9.15668643D-01 3.78779027D-01
 ***** Axes restored to original set *****
 -------------------------------------------------------------------
 Center     Atomic                   Forces (Hartrees/Bohr)
 Number     Number              X              Y              Z
 -------------------------------------------------------------------
      1        6          -0.038461787    0.062462441    0.017294469
      2        6           0.053683256   -0.010565691    0.039980287
      3        6          -0.015631548    0.006903375   -0.037657320
      4        6          -0.002457421   -0.040426121   -0.022987180
      5        6           0.022799881   -0.020786718    0.004227332
      6        6           0.028881032   -0.024631704    0.019793100
      7        6           0.009996957    0.022294155    0.027655729
      8        8          -0.003822168    0.017414822   -0.009564394
      9        8           0.050659605   -0.032509214   -0.007017537
     10        8          -0.001596526   -0.000192767   -0.009797105
     11        6          -0.028095757    0.005003843    0.026729344
     12        6          -0.045982887    0.047910209    0.035246996
     13        8          -0.026639608   -0.010768517   -0.043190399
     14        1           0.003581803   -0.009148920   -0.021482695
     15        1           0.003323483   -0.014279462   -0.001594842
     16        1          -0.006350071   -0.001350218   -0.010648188
     17        1           0.001623483    0.011395545    0.017582252
     18        1           0.009961706   -0.008709011    0.005471280
     19        1           0.004088376   -0.008790561   -0.015316964
     20        1          -0.014535683    0.016200026   -0.007566683
     21        1          -0.005026126   -0.007425514   -0.007157481
 -------------------------------------------------------------------
 Cartesian Forces:  Max     0.062462441 RMS     0.023548775
 Z-matrix is all fixed cartesians, so copy forces.
 Leave Link  716 at Mon Aug  7 12:55:11 2023, MaxMem=   458752000 cpu:         0.0
 (Enter /opt/apps/apps/binapps/gaussian/g09d01_em64t/g09/l103.exe)

 GradGradGradGradGradGradGradGradGradGradGradGradGradGradGradGradGradGrad
 Berny optimization.
 Search for a local minimum.
 Step number   1 out of a maximum of    2
 All quantities printed in internal units (Hartrees-Bohrs-Radians)
 Second derivative matrix not updated -- first step.
 ITU=  0
     Eigenvalues ---    0.00045   0.00098   0.00193   0.00218   0.00483
     Eigenvalues ---    0.00839   0.00927   0.01484   0.01629   0.01891
     Eigenvalues ---    0.02611   0.03103   0.03515   0.03751   0.05072
     Eigenvalues ---    0.05615   0.05858   0.06721   0.07014   0.07583
     Eigenvalues ---    0.07818   0.09114   0.10107   0.11305   0.12353
     Eigenvalues ---    0.13459   0.14082   0.14650   0.15174   0.18497
     Eigenvalues ---    0.21362   0.22734   0.24611   0.25887   0.27998
     Eigenvalues ---    0.31473   0.37834   0.38996   0.45786   0.48381
     Eigenvalues ---    0.59134   0.65583   0.77779   0.91620   0.93798
     Eigenvalues ---    0.99980   1.04462   1.05447   1.12771   1.17054
     Eigenvalues ---    1.24556   1.29862   1.36917   1.54156   1.66895
     Eigenvalues ---    2.06481   2.33031
 Quadratic step=3.321D+00 exceeds max=3.000D-01 adjusted using Lamda=-1.928D-01.
 Angle between NR and scaled steps=  67.49 degrees.
 Angle between quadratic step and forces=  41.41 degrees.
 Linear search not attempted -- first point.
 TrRot= -0.020393  0.002435  0.027370 -0.125106  0.001129  0.125293
 Variable       Old X    -DE/DX   Delta X   Delta X   Delta X     New X
                                 (Linear)    (Quad)   (Total)
    X1       26.60288  -0.03846   0.00000  -0.03096  -0.02665  26.57623
    Y1       21.96506   0.06246   0.00000   0.08738   0.09116  22.05622
    Z1       25.73703   0.01729   0.00000   0.01639   0.01710  25.75413
    X2       22.40390   0.05368   0.00000   0.06228   0.06596  22.46987
    Y2       25.50889  -0.01057   0.00000  -0.01936  -0.01636  25.49253
    Z2       25.73035   0.03998   0.00000   0.04038   0.04617  25.77652
    X3       26.24333  -0.01563   0.00000  -0.00658  -0.00033  26.24300
    Y3       23.72565   0.00690   0.00000   0.03285   0.03628  23.76193
    Z3       27.80181  -0.03766   0.00000  -0.03429  -0.03297  27.76884
    X4       24.29187  -0.00246   0.00000   0.00312   0.00894  24.30081
    Y4       25.66086  -0.04043   0.00000  -0.06347  -0.06039  25.60047
    Z4       27.70193  -0.02299   0.00000  -0.00519  -0.00143  27.70050
    X5       17.59979   0.02280   0.00000   0.01101   0.00742  17.60721
    Y5       24.41152  -0.02079   0.00000  -0.02372  -0.02068  24.39084
    Z5       19.08988   0.00423   0.00000  -0.00906   0.00201  19.09189
    X6       24.92431   0.02888   0.00000  -0.00641  -0.00441  24.91989
    Y6       22.09777  -0.02463   0.00000  -0.01735  -0.01359  22.08418
    Z6       23.65420   0.01979   0.00000   0.04150   0.04407  23.69827
    X7       22.77464   0.01000   0.00000   0.00843   0.01029  22.78493
    Y7       23.70112   0.02229   0.00000   0.02179   0.02513  23.72625
    Z7       23.83814   0.02766   0.00000   0.00589   0.01108  23.84922
    X8       27.21773  -0.00382   0.00000  -0.00551  -0.00505  27.21269
    Y8       18.54321   0.01741   0.00000   0.05453   0.05899  18.60220
    Z8       21.76083  -0.00956   0.00000  -0.01526  -0.01575  21.74508
    X9       17.55569   0.05066   0.00000   0.09246   0.09310  17.64878
    Y9       26.15778  -0.03251   0.00000  -0.02414  -0.02167  26.13612
    Z9       23.08530  -0.00702   0.00000   0.06120   0.07248  23.15778
   X10       24.38663  -0.00160   0.00000   0.01094   0.00837  24.39500
   Y10       20.78930  -0.00019   0.00000  -0.01285  -0.00859  20.78071
   Z10       19.42226  -0.00980   0.00000  -0.02336  -0.02039  19.40187
   X11       25.75054  -0.02810   0.00000  -0.08602  -0.08610  25.66444
   Y11       20.28229   0.00500   0.00000  -0.01201  -0.00781  20.27448
   Z11       21.48622   0.02673   0.00000   0.05165   0.05313  21.53935
   X12       18.80385  -0.04598   0.00000  -0.02161  -0.02248  18.78137
   Y12       24.83536   0.04791   0.00000   0.03212   0.03503  24.87039
   Z12       21.58894   0.03525   0.00000   0.00474   0.01457  21.60352
   X13       21.11277  -0.02664   0.00000  -0.03090  -0.03126  21.08151
   Y13       23.70315  -0.01077   0.00000  -0.00886  -0.00556  23.69759
   Z13       21.90199  -0.04319   0.00000  -0.05028  -0.04319  21.85881
   X14       23.15466   0.00358   0.00000  -0.00937  -0.01160  23.14306
   Y14       22.07150  -0.00915   0.00000  -0.02258  -0.01862  22.05288
   Z14       20.00743  -0.02148   0.00000  -0.09805  -0.09350  19.91393
   X15       28.34480   0.00332   0.00000  -0.04220  -0.03779  28.30701
   Y15       20.94845  -0.01428   0.00000  -0.01438  -0.01027  20.93818
   Z15       25.64494  -0.00159   0.00000   0.01176   0.01037  25.65532
   X16       20.85253  -0.00635   0.00000   0.01900   0.02254  20.87507
   Y16       26.81038  -0.00135   0.00000  -0.02370  -0.02100  26.78938
   Z16       25.87564  -0.01065   0.00000  -0.02526  -0.01750  25.85814
   X17       27.73960   0.00162   0.00000  -0.02610  -0.01824  27.72136
   Y17       23.57001   0.01140   0.00000   0.05000   0.05351  23.62352
   Z17       29.15215   0.01758   0.00000   0.03527   0.03492  29.18707
   X18       23.99494   0.00996   0.00000   0.03533   0.04236  24.03730
   Y18       27.21807  -0.00871   0.00000  -0.06118  -0.05834  27.15973
   Z18       29.02126   0.00547   0.00000   0.01413   0.01841  29.03967
   X19       16.97891   0.00409   0.00000   0.01750   0.01429  16.99319
   Y19       22.45138  -0.00879   0.00000  -0.03354  -0.03062  22.42077
   Z19       19.15846  -0.01532   0.00000  -0.06163  -0.05014  19.10832
   X20       15.93064  -0.01454   0.00000  -0.01112  -0.01492  15.91573
   Y20       25.51585   0.01620   0.00000   0.02135   0.02407  25.53993
   Z20       19.13168  -0.00757   0.00000  -0.04274  -0.02961  19.10207
   X21       18.91861  -0.00503   0.00000  -0.00903  -0.01443  18.90418
   Y21       24.89254  -0.00743   0.00000  -0.03417  -0.03067  24.86187
   Z21       17.57814  -0.00716   0.00000  -0.02952  -0.01982  17.55831
         Item               Value     Threshold  Converged?
 Maximum Force            0.062462     0.000450     NO 
 RMS     Force            0.023549     0.000300     NO 
 Maximum Displacement     0.093503     0.001800     NO 
 RMS     Displacement     0.037471     0.001200     NO 
 Predicted change in Energy=-2.970958D-02
 GradGradGradGradGradGradGradGradGradGradGradGradGradGradGradGradGradGrad

 Leave Link  103 at Mon Aug  7 12:55:11 2023, MaxMem=   458752000 cpu:         0.0
 (Enter /opt/apps/apps/binapps/gaussian/g09d01_em64t/g09/l9999.exe)
 1\1\GINC-NODE690\Force\RB3LYP\6-31G(d)\C9H8O4\MBDX6CW3\07-Aug-2023\0\\
 #p b3lyp/6-31g* pop=mk empiricaldispersion=gd3 int(ultrafine) force\\a
 spirin\\0,1\C,14.07763839,11.62340999,13.61944914\C,11.85563564,13.498
 72231,13.61591578\C,13.88737082,12.5550735,14.71208215\C,12.85470486,1
 3.57913971,14.65922832\C,9.31340814,12.91801929,10.1019299\C,13.189374
 21,11.69363856,12.51726508\C,12.05181837,12.54209161,12.61460066\O,14.
 40300465,9.81264472,11.51533484\O,9.29006994,13.84210229,12.21621394\O
 ,12.90484786,11.00122213,10.27781844\C,13.62659931,10.73292494,11.3700
 1991\C,9.95056689,13.14230561,11.42437696\O,11.17239594,12.54316568,11
 .59003615\H,12.25292087,11.67973518,10.58747649\H,14.99942303,11.08544
 23,13.57071877\H,11.03468299,14.18744087,13.692801\H,14.67916369,12.47
 271299,15.42665362\H,12.69757628,14.40318227,15.35738945\H,8.98485005,
 11.880759,10.13822198\H,8.43013346,13.50240827,10.1240468\H,10.0112962
 7,13.17256689,9.30195093\\Version=ES64L-G09RevD.01\State=1-A\HF=-648.6
 56034\RMSD=5.752e-09\RMSF=2.355e-02\Dipole=-0.6794982,1.1465854,0.2520
 904\Quadrupole=-0.1705133,-4.856388,5.0269013,6.8773303,8.7087795,-2.6
 339546\PG=C01 [X(C9H8O4)]\\@


0EVERYBODY IS IGNORANT, ONLY ON DIFFERENT SUBJECTS.
0          WILL ROGERS
 Job cpu time:       0 days  0 hours  2 minutes 30.9 seconds.
 File lengths (MBytes):  RWF=     20 Int=      0 D2E=      0 Chk=      3 Scr=      1
 Normal termination of Gaussian 09 at Mon Aug  7 12:55:11 2023.
