 Entering Gaussian System, Link 0=/opt/apps/apps/binapps/gaussian/g09d01_em64t/g09/g09
 Initial command:
 /opt/apps/apps/binapps/gaussian/g09d01_em64t/g09/l1.exe "/net/scratch2/mbdx6cw3/aspirin/300K-meta/dft/qm_input/gau_temp_2/Gau-2488.inp" -scrdir="/net/scratch2/mbdx6cw3/aspirin/300K-meta/dft/qm_input/gau_temp_2/"
 Entering Link 1 = /opt/apps/apps/binapps/gaussian/g09d01_em64t/g09/l1.exe PID=      2496.
  
 Copyright (c) 1988,1990,1992,1993,1995,1998,2003,2009,2013,
            Gaussian, Inc.  All Rights Reserved.
  
 This is part of the Gaussian(R) 09 program.  It is based on
 the Gaussian(R) 03 system (copyright 2003, Gaussian, Inc.),
 the Gaussian(R) 98 system (copyright 1998, Gaussian, Inc.),
 the Gaussian(R) 94 system (copyright 1995, Gaussian, Inc.),
 the Gaussian 92(TM) system (copyright 1992, Gaussian, Inc.),
 the Gaussian 90(TM) system (copyright 1990, Gaussian, Inc.),
 the Gaussian 88(TM) system (copyright 1988, Gaussian, Inc.),
 the Gaussian 86(TM) system (copyright 1986, Carnegie Mellon
 University), and the Gaussian 82(TM) system (copyright 1983,
 Carnegie Mellon University). Gaussian is a federally registered
 trademark of Gaussian, Inc.
  
 This software contains proprietary and confidential information,
 including trade secrets, belonging to Gaussian, Inc.
  
 This software is provided under written license and may be
 used, copied, transmitted, or stored only in accord with that
 written license.
  
 The following legend is applicable only to US Government
 contracts under FAR:
  
                    RESTRICTED RIGHTS LEGEND
  
 Use, reproduction and disclosure by the US Government is
 subject to restrictions as set forth in subparagraphs (a)
 and (c) of the Commercial Computer Software - Restricted
 Rights clause in FAR 52.227-19.
  
 Gaussian, Inc.
 340 Quinnipiac St., Bldg. 40, Wallingford CT 06492
  
  
 ---------------------------------------------------------------
 Warning -- This program may not be used in any manner that
 competes with the business of Gaussian, Inc. or will provide
 assistance to any competitor of Gaussian, Inc.  The licensee
 of this program is prohibited from giving any competitor of
 Gaussian, Inc. access to this program.  By using this program,
 the user acknowledges that Gaussian, Inc. is engaged in the
 business of creating and licensing software in the field of
 computational chemistry and represents and warrants to the
 licensee that it is not a competitor of Gaussian, Inc. and that
 it will not use this program in any manner prohibited above.
 ---------------------------------------------------------------
  

 Cite this work as:
 Gaussian 09, Revision D.01,
 M. J. Frisch, G. W. Trucks, H. B. Schlegel, G. E. Scuseria, 
 M. A. Robb, J. R. Cheeseman, G. Scalmani, V. Barone, B. Mennucci, 
 G. A. Petersson, H. Nakatsuji, M. Caricato, X. Li, H. P. Hratchian, 
 A. F. Izmaylov, J. Bloino, G. Zheng, J. L. Sonnenberg, M. Hada, 
 M. Ehara, K. Toyota, R. Fukuda, J. Hasegawa, M. Ishida, T. Nakajima, 
 Y. Honda, O. Kitao, H. Nakai, T. Vreven, J. A. Montgomery, Jr., 
 J. E. Peralta, F. Ogliaro, M. Bearpark, J. J. Heyd, E. Brothers, 
 K. N. Kudin, V. N. Staroverov, T. Keith, R. Kobayashi, J. Normand, 
 K. Raghavachari, A. Rendell, J. C. Burant, S. S. Iyengar, J. Tomasi, 
 M. Cossi, N. Rega, J. M. Millam, M. Klene, J. E. Knox, J. B. Cross, 
 V. Bakken, C. Adamo, J. Jaramillo, R. Gomperts, R. E. Stratmann, 
 O. Yazyev, A. J. Austin, R. Cammi, C. Pomelli, J. W. Ochterski, 
 R. L. Martin, K. Morokuma, V. G. Zakrzewski, G. A. Voth, 
 P. Salvador, J. J. Dannenberg, S. Dapprich, A. D. Daniels, 
 O. Farkas, J. B. Foresman, J. V. Ortiz, J. Cioslowski, 
 and D. J. Fox, Gaussian, Inc., Wallingford CT, 2013.
 
 ******************************************
 Gaussian 09:  ES64L-G09RevD.01 24-Apr-2013
                 7-Aug-2023 
 ******************************************
 %chk=./gau_temp_2/mol_chk.chk
 %mem=3500MB
 -------------------------------------------------------------------
 #p b3lyp/6-31g* pop=mk empiricaldispersion=gd3 int(ultrafine) force
 -------------------------------------------------------------------
 1/10=7,30=1,38=1/1,3;
 2/12=2,17=6,18=5,40=1/2;
 3/5=1,6=6,7=1,11=2,16=1,25=1,30=1,71=1,74=-5,75=-5,124=31/1,2,3;
 4//1;
 5/5=2,38=5/2;
 6/7=2,8=2,9=2,10=2,15=8,20=1,28=1/1,2;
 7/29=1/1,2,3,16;
 1/10=7,30=1/3;
 99//99;
 Leave Link    1 at Mon Aug  7 12:49:21 2023, MaxMem=   458752000 cpu:         0.0
 (Enter /opt/apps/apps/binapps/gaussian/g09d01_em64t/g09/l101.exe)
 -------
 aspirin
 -------
 Symbolic Z-matrix:
 Charge =  0 Multiplicity = 1
 C                     13.77922   10.9114   13.43881 
 C                     11.97207   13.01701   13.94037 
 C                     13.6111   11.47418   14.74515 
 C                     12.6257   12.41676   14.98915 
 C                     10.14625   14.66223   10.35624 
 C                     12.97701   11.376    12.40787 
 C                     12.12748   12.5356   12.60687 
 O                     13.63147   9.65934   10.94342 
 O                     9.53076   13.73903   12.47257 
 O                     12.96628   11.49772   10.09715 
 C                     13.10399   10.73223   11.1213 
 C                     10.40017   13.84544   11.58404 
 O                     11.53392   13.1271   11.54377 
 H                     12.8584   12.32623   10.61298 
 H                     14.53432   10.13641   13.4498 
 H                     11.31109   13.87709   14.20608 
 H                     14.11474   11.14087   15.58899 
 H                     12.55151   12.79622   15.99797 
 H                     9.53358   15.43658   10.84081 
 H                     11.04678   15.09184   9.93219 
 H                     9.61547   14.16069   9.57103 
 
 NAtoms=     21 NQM=       21 NQMF=       0 NMMI=      0 NMMIF=      0
                NMic=       0 NMicF=      0.
                    Isotopes and Nuclear Properties:
 (Nuclear quadrupole moments (NQMom) in fm**2, nuclear magnetic moments (NMagM)
  in nuclear magnetons)

  Atom         1           2           3           4           5           6           7           8           9          10
 IAtWgt=          12          12          12          12          12          12          12          16          16          16
 AtmWgt=  12.0000000  12.0000000  12.0000000  12.0000000  12.0000000  12.0000000  12.0000000  15.9949146  15.9949146  15.9949146
 NucSpn=           0           0           0           0           0           0           0           0           0           0
 AtZEff=   0.0000000   0.0000000   0.0000000   0.0000000   0.0000000   0.0000000   0.0000000   0.0000000   0.0000000   0.0000000
 NQMom=    0.0000000   0.0000000   0.0000000   0.0000000   0.0000000   0.0000000   0.0000000   0.0000000   0.0000000   0.0000000
 NMagM=    0.0000000   0.0000000   0.0000000   0.0000000   0.0000000   0.0000000   0.0000000   0.0000000   0.0000000   0.0000000
 AtZNuc=   6.0000000   6.0000000   6.0000000   6.0000000   6.0000000   6.0000000   6.0000000   8.0000000   8.0000000   8.0000000

  Atom        11          12          13          14          15          16          17          18          19          20
 IAtWgt=          12          12          16           1           1           1           1           1           1           1
 AtmWgt=  12.0000000  12.0000000  15.9949146   1.0078250   1.0078250   1.0078250   1.0078250   1.0078250   1.0078250   1.0078250
 NucSpn=           0           0           0           1           1           1           1           1           1           1
 AtZEff=   0.0000000   0.0000000   0.0000000   0.0000000   0.0000000   0.0000000   0.0000000   0.0000000   0.0000000   0.0000000
 NQMom=    0.0000000   0.0000000   0.0000000   0.0000000   0.0000000   0.0000000   0.0000000   0.0000000   0.0000000   0.0000000
 NMagM=    0.0000000   0.0000000   0.0000000   2.7928460   2.7928460   2.7928460   2.7928460   2.7928460   2.7928460   2.7928460
 AtZNuc=   6.0000000   6.0000000   8.0000000   1.0000000   1.0000000   1.0000000   1.0000000   1.0000000   1.0000000   1.0000000

  Atom        21
 IAtWgt=           1
 AtmWgt=   1.0078250
 NucSpn=           1
 AtZEff=   0.0000000
 NQMom=    0.0000000
 NMagM=    2.7928460
 AtZNuc=   1.0000000
 Leave Link  101 at Mon Aug  7 12:49:21 2023, MaxMem=   458752000 cpu:         0.1
 (Enter /opt/apps/apps/binapps/gaussian/g09d01_em64t/g09/l103.exe)

 GradGradGradGradGradGradGradGradGradGradGradGradGradGradGradGradGradGrad
 Berny optimization.
 Initialization pass.
 Trust Radius=3.00D-01 FncErr=1.00D-07 GrdErr=1.00D-07
 Number of steps in this run=      2 maximum allowed number of steps=      2.
 GradGradGradGradGradGradGradGradGradGradGradGradGradGradGradGradGradGrad

 Leave Link  103 at Mon Aug  7 12:49:21 2023, MaxMem=   458752000 cpu:         0.0
 (Enter /opt/apps/apps/binapps/gaussian/g09d01_em64t/g09/l202.exe)
                          Input orientation:                          
 ---------------------------------------------------------------------
 Center     Atomic      Atomic             Coordinates (Angstroms)
 Number     Number       Type             X           Y           Z
 ---------------------------------------------------------------------
      1          6           0       13.779218   10.911398   13.438810
      2          6           0       11.972071   13.017014   13.940365
      3          6           0       13.611101   11.474180   14.745152
      4          6           0       12.625704   12.416761   14.989152
      5          6           0       10.146253   14.662235   10.356236
      6          6           0       12.977006   11.376002   12.407870
      7          6           0       12.127479   12.535597   12.606871
      8          8           0       13.631470    9.659340   10.943418
      9          8           0        9.530756   13.739032   12.472575
     10          8           0       12.966284   11.497717   10.097147
     11          6           0       13.103988   10.732231   11.121299
     12          6           0       10.400167   13.845441   11.584038
     13          8           0       11.533921   13.127102   11.543771
     14          1           0       12.858404   12.326225   10.612977
     15          1           0       14.534318   10.136410   13.449798
     16          1           0       11.311085   13.877093   14.206083
     17          1           0       14.114739   11.140869   15.588988
     18          1           0       12.551508   12.796217   15.997965
     19          1           0        9.533579   15.436584   10.840806
     20          1           0       11.046778   15.091845    9.932195
     21          1           0        9.615475   14.160692    9.571028
 ---------------------------------------------------------------------
                    Distance matrix (angstroms):
                    1          2          3          4          5
     1  C    0.000000
     2  C    2.819745   0.000000
     3  C    1.432312   2.390489   0.000000
     4  C    2.449545   1.373861   1.385280   0.000000
     5  C    6.063784   4.345843   6.436727   5.714345   0.000000
     6  C    1.386448   2.459951   2.423758   2.805282   4.798093
     7  C    2.461379   1.426226   2.810691   2.436721   3.676031
     8  O    2.795794   4.796799   4.212748   4.998290   6.125396
     9  O    5.194088   2.938662   5.190700   4.202411   2.389567
    10  O    3.488745   4.250535   4.692578   4.989223   4.246631
    11  C    2.420515   3.801132   3.733626   4.245784   4.977795
    12  C    4.844253   2.951179   5.091721   4.311490   1.496369
    13  O    3.679929   2.438803   4.158806   3.683371   2.385895
    14  H    3.291652   3.512021   4.285721   4.383293   3.588679
    15  H    1.082083   3.886341   2.078438   3.348495   7.021989
    16  H    3.933921   1.116800   3.369667   2.115180   4.098122
    17  H    2.188263   3.290730   1.037693   2.050592   7.451885
    18  H    3.407212   2.149004   2.107145   1.080369   6.410646
    19  H    6.726989   4.626859   6.897155   5.990771   1.099906
    20  H    6.102353   4.607225   6.544296   5.934804   1.084122
    21  H    6.546328   5.094375   7.067810   6.438854   1.072298
                    6          7          8          9         10
     6  C    0.000000
     7  C    1.451192   0.000000
     8  O    2.349441   3.647180   0.000000
     9  O    4.179083   2.865181   5.983148   0.000000
    10  O    2.313951   2.842446   2.130323   4.740147   0.000000
    11  C    1.444240   2.532316   1.208708   4.861561   1.286009
    12  C    3.662914   2.396975   5.326834   1.247676   3.782540
    13  O    2.428068   1.353651   4.097012   2.291245   2.607543
    14  H    2.034363   2.133941   2.796265   4.065386   0.981908
    15  H    2.246647   3.501357   2.706413   6.242554   3.943622
    16  H    3.502045   2.241336   5.815377   2.488711   5.028366
    17  H    3.386626   3.845450   4.899980   6.121713   5.621975
    18  H    3.884179   3.427425   6.046054   4.737322   6.056220
    19  H    5.549884   4.273526   7.083769   2.354647   5.277420
    20  H    4.864385   3.854375   6.100436   3.252992   4.077924
    21  H    5.205964   4.262328   6.186585   2.933249   4.312326
                   11         12         13         14         15
    11  C    0.000000
    12  C    4.149320   0.000000
    13  O    2.894650   1.342770   0.000000
    14  H    1.691012   3.048591   1.806111   0.000000
    15  H    2.796918   5.859111   4.645381   3.956202   0.000000
    16  H    4.756106   2.775950   2.774896   4.208301   4.995388
    17  H    4.598787   6.095276   5.193219   5.267270   2.400233
    18  H    5.324204   5.021145   4.580919   5.414165   4.183213
    19  H    5.912481   1.958341   3.135161   4.558585   7.739901
    20  H    4.965110   2.167997   2.587412   3.375515   7.006626
    21  H    5.131024   2.183422   2.939466   3.868787   7.445450
                   16         17         18         19         20
    16  H    0.000000
    17  H    4.154494   0.000000
    18  H    2.432649   2.313251   0.000000
    19  H    4.112983   7.873082   6.532666   0.000000
    20  H    4.451022   7.551285   6.657904   1.798385   0.000000
    21  H    4.943608   8.098058   7.196361   1.801928   1.745313
                   21
    21  H    0.000000
 Stoichiometry    C9H8O4
 Framework group  C1[X(C9H8O4)]
 Deg. of freedom    57
 Full point group                 C1      NOp   1
 Largest Abelian subgroup         C1      NOp   1
 Largest concise Abelian subgroup C1      NOp   1
                         Standard orientation:                         
 ---------------------------------------------------------------------
 Center     Atomic      Atomic             Coordinates (Angstroms)
 Number     Number       Type             X           Y           Z
 ---------------------------------------------------------------------
      1          6           0        2.401193    0.451243   -0.100405
      2          6           0       -0.052772    1.839160   -0.152344
      3          6           0        2.337082    1.879306   -0.190085
      4          6           0        1.125481    2.542302   -0.083029
      5          6           0       -3.534639   -0.748646   -0.409652
      6          6           0        1.217930   -0.259093    0.032067
      7          6           0       -0.059869    0.413520   -0.112086
      8          8           0        2.323533   -2.271356    0.530375
      9          8           0       -2.656541    1.019880    0.936189
     10          8           0        0.383648   -2.384623   -0.342719
     11          6           0        1.314184   -1.689224    0.208952
     12          6           0       -2.425734    0.105709    0.119051
     13          8           0       -1.196309   -0.313835   -0.220845
     14          1           0       -0.070910   -1.620082   -0.758650
     15          1           0        3.428453    0.111810   -0.121042
     16          1           0       -0.983263    2.452870   -0.221552
     17          1           0        3.171005    2.496163   -0.219526
     18          1           0        1.150103    3.619975   -0.155228
     19          1           0       -4.305015    0.036212   -0.427369
     20          1           0       -3.346576   -1.127496   -1.407863
     21          1           0       -3.815581   -1.575641    0.212420
 ---------------------------------------------------------------------
 Rotational constants (GHZ):      1.1060062      0.6907910      0.4460952
 Leave Link  202 at Mon Aug  7 12:49:21 2023, MaxMem=   458752000 cpu:         0.0
 (Enter /opt/apps/apps/binapps/gaussian/g09d01_em64t/g09/l301.exe)
 Standard basis: 6-31G(d) (6D, 7F)
 Ernie: Thresh=  0.10000D-02 Tol=  0.10000D-05 Strict=F.
 There are   211 symmetry adapted cartesian basis functions of A   symmetry.
 There are   211 symmetry adapted basis functions of A   symmetry.
   211 basis functions,   396 primitive gaussians,   211 cartesian basis functions
    47 alpha electrons       47 beta electrons
       nuclear repulsion energy       775.3812539902 Hartrees.
 IExCor=  402 DFT=T Ex+Corr=B3LYP ExCW=0 ScaHFX=  0.200000
 ScaDFX=  0.800000  0.720000  1.000000  0.810000 ScalE2=  1.000000  1.000000
 IRadAn=      5 IRanWt=     -1 IRanGd=            0 ICorTp=0 IEmpDi=131
 NAtoms=   21 NActive=   21 NUniq=   21 SFac= 1.00D+00 NAtFMM=   60 NAOKFM=F Big=F
 Integral buffers will be    131072 words long.
 Raffenetti 2 integral format.
 Two-electron integral symmetry is turned on.
 R6Disp:  Grimme-D3 Dispersion energy=       -0.0169893343 Hartrees.
 Nuclear repulsion after empirical dispersion term =      775.3642646559 Hartrees.
 Leave Link  301 at Mon Aug  7 12:49:22 2023, MaxMem=   458752000 cpu:         0.0
 (Enter /opt/apps/apps/binapps/gaussian/g09d01_em64t/g09/l302.exe)
 NPDir=0 NMtPBC=     1 NCelOv=     1 NCel=       1 NClECP=     1 NCelD=      1
         NCelK=      1 NCelE2=     1 NClLst=     1 CellRange=     0.0.
 One-electron integrals computed using PRISM.
 NBasis=   211 RedAO= T EigKep=  5.06D-04  NBF=   211
 NBsUse=   211 1.00D-06 EigRej= -1.00D+00 NBFU=   211
 Precomputing XC quadrature grid using
 IXCGrd= 4 IRadAn=           5 IRanWt=          -1 IRanGd=           0 AccXCQ= 0.00D+00.
 Generated NRdTot=       0 NPtTot=           0 NUsed=           0 NTot=          32
 NSgBfM=   210   210   210   210   210 MxSgAt=    21 MxSgA2=    21.
 Leave Link  302 at Mon Aug  7 12:49:22 2023, MaxMem=   458752000 cpu:         0.6
 (Enter /opt/apps/apps/binapps/gaussian/g09d01_em64t/g09/l303.exe)
 DipDrv:  MaxL=1.
 Leave Link  303 at Mon Aug  7 12:49:22 2023, MaxMem=   458752000 cpu:         0.0
 (Enter /opt/apps/apps/binapps/gaussian/g09d01_em64t/g09/l401.exe)
 ExpMin= 1.61D-01 ExpMax= 5.48D+03 ExpMxC= 8.25D+02 IAcc=3 IRadAn=         5 AccDes= 0.00D+00
 Harris functional with IExCor=  402 and IRadAn=       5 diagonalized for initial guess.
 HarFok:  IExCor=  402 AccDes= 0.00D+00 IRadAn=         5 IDoV= 1 UseB2=F ITyADJ=14
 ICtDFT=  3500011 ScaDFX=  1.000000  1.000000  1.000000  1.000000
 FoFCou: FMM=F IPFlag=           0 FMFlag=      100000 FMFlg1=           0
         NFxFlg=           0 DoJE=T BraDBF=F KetDBF=T FulRan=T
         wScrn=  0.000000 ICntrl=     500 IOpCl=  0 I1Cent=   200000004 NGrid=           0
         NMat0=    1 NMatS0=      1 NMatT0=    0 NMatD0=    1 NMtDS0=    0 NMtDT0=    0
 Petite list used in FoFCou.
 Harris En= -648.692557933209    
 JPrj=0 DoOrth=F DoCkMO=F.
 Leave Link  401 at Mon Aug  7 12:49:30 2023, MaxMem=   458752000 cpu:         7.3
 (Enter /opt/apps/apps/binapps/gaussian/g09d01_em64t/g09/l502.exe)
 Closed shell SCF:
 Using DIIS extrapolation, IDIIS=  1040.
 Integral symmetry usage will be decided dynamically.
 Keep R1 ints in memory in canonical form, NReq=255049085.
 IVT=      154966 IEndB=      154966 NGot=   458752000 MDV=   208466874
 LenX=   208466874 LenY=   208421912
 Requested convergence on RMS density matrix=1.00D-08 within 128 cycles.
 Requested convergence on MAX density matrix=1.00D-06.
 Requested convergence on             energy=1.00D-06.
 No special actions if energy rises.
 FoFCou: FMM=F IPFlag=           0 FMFlag=           0 FMFlg1=           0
         NFxFlg=           0 DoJE=F BraDBF=F KetDBF=F FulRan=T
         wScrn=  0.000000 ICntrl=     600 IOpCl=  0 I1Cent=           0 NGrid=           0
         NMat0=    1 NMatS0=  22366 NMatT0=    0 NMatD0=    1 NMtDS0=    0 NMtDT0=    0
 Symmetry not used in FoFCou.
 Integral accuracy reduced to 1.0D-05 until final iterations.

 Cycle   1  Pass 0  IDiag  1:
 E= -648.257030092430    
 DIIS: error= 2.64D-02 at cycle   1 NSaved=   1.
 NSaved= 1 IEnMin= 1 EnMin= -648.257030092430     IErMin= 1 ErrMin= 2.64D-02
 ErrMax= 2.64D-02  0.00D+00 EMaxC= 1.00D-01 BMatC= 4.43D-01 BMatP= 4.43D-01
 IDIUse=3 WtCom= 7.36D-01 WtEn= 2.64D-01
 Coeff-Com:  0.100D+01
 Coeff-En:   0.100D+01
 Coeff:      0.100D+01
 Gap=     0.221 Goal=   None    Shift=    0.000
 GapD=    0.221 DampG=1.000 DampE=0.500 DampFc=0.5000 IDamp=-1.
 Damping current iteration by 5.00D-01
 RMSDP=8.52D-03 MaxDP=2.27D-01              OVMax= 3.36D-01

 Cycle   2  Pass 0  IDiag  1:
 E= -648.270021285473     Delta-E=       -0.012991193043 Rises=F Damp=T
 DIIS: error= 1.62D-02 at cycle   2 NSaved=   2.
 NSaved= 2 IEnMin= 2 EnMin= -648.270021285473     IErMin= 2 ErrMin= 1.62D-02
 ErrMax= 1.62D-02  0.00D+00 EMaxC= 1.00D-01 BMatC= 1.39D-01 BMatP= 4.43D-01
 IDIUse=3 WtCom= 8.38D-01 WtEn= 1.62D-01
 Coeff-Com:  0.320D+00 0.680D+00
 Coeff-En:   0.487D+00 0.513D+00
 Coeff:      0.347D+00 0.653D+00
 Gap=     0.177 Goal=   None    Shift=    0.000
 RMSDP=3.03D-03 MaxDP=8.35D-02 DE=-1.30D-02 OVMax= 2.99D-01

 Cycle   3  Pass 0  IDiag  1:
 E= -648.570420477293     Delta-E=       -0.300399191820 Rises=F Damp=F
 DIIS: error= 1.18D-02 at cycle   3 NSaved=   3.
 NSaved= 3 IEnMin= 3 EnMin= -648.570420477293     IErMin= 3 ErrMin= 1.18D-02
 ErrMax= 1.18D-02  0.00D+00 EMaxC= 1.00D-01 BMatC= 8.43D-02 BMatP= 1.39D-01
 IDIUse=3 WtCom= 8.82D-01 WtEn= 1.18D-01
 Coeff-Com:  0.129D+00 0.423D+00 0.448D+00
 Coeff-En:   0.000D+00 0.000D+00 0.100D+01
 Coeff:      0.114D+00 0.373D+00 0.513D+00
 Gap=     0.204 Goal=   None    Shift=    0.000
 RMSDP=1.67D-03 MaxDP=4.72D-02 DE=-3.00D-01 OVMax= 9.26D-02

 Cycle   4  Pass 0  IDiag  1:
 E= -648.636425631500     Delta-E=       -0.066005154207 Rises=F Damp=F
 DIIS: error= 4.82D-03 at cycle   4 NSaved=   4.
 NSaved= 4 IEnMin= 4 EnMin= -648.636425631500     IErMin= 4 ErrMin= 4.82D-03
 ErrMax= 4.82D-03  0.00D+00 EMaxC= 1.00D-01 BMatC= 1.21D-02 BMatP= 8.43D-02
 IDIUse=3 WtCom= 9.52D-01 WtEn= 4.82D-02
 Coeff-Com:  0.308D-01 0.818D-01 0.286D+00 0.602D+00
 Coeff-En:   0.000D+00 0.000D+00 0.118D+00 0.882D+00
 Coeff:      0.293D-01 0.778D-01 0.277D+00 0.615D+00
 Gap=     0.196 Goal=   None    Shift=    0.000
 RMSDP=4.92D-04 MaxDP=1.51D-02 DE=-6.60D-02 OVMax= 2.46D-02

 Cycle   5  Pass 0  IDiag  1:
 E= -648.644925087496     Delta-E=       -0.008499455996 Rises=F Damp=F
 DIIS: error= 1.11D-03 at cycle   5 NSaved=   5.
 NSaved= 5 IEnMin= 5 EnMin= -648.644925087496     IErMin= 5 ErrMin= 1.11D-03
 ErrMax= 1.11D-03  0.00D+00 EMaxC= 1.00D-01 BMatC= 9.25D-04 BMatP= 1.21D-02
 IDIUse=3 WtCom= 9.89D-01 WtEn= 1.11D-02
 Coeff-Com:  0.555D-02 0.344D-02 0.111D+00 0.350D+00 0.531D+00
 Coeff-En:   0.000D+00 0.000D+00 0.000D+00 0.000D+00 0.100D+01
 Coeff:      0.549D-02 0.340D-02 0.109D+00 0.346D+00 0.536D+00
 Gap=     0.197 Goal=   None    Shift=    0.000
 RMSDP=1.67D-04 MaxDP=4.26D-03 DE=-8.50D-03 OVMax= 6.75D-03

 Cycle   6  Pass 0  IDiag  1:
 E= -648.645611410727     Delta-E=       -0.000686323231 Rises=F Damp=F
 DIIS: error= 4.50D-04 at cycle   6 NSaved=   6.
 NSaved= 6 IEnMin= 6 EnMin= -648.645611410727     IErMin= 6 ErrMin= 4.50D-04
 ErrMax= 4.50D-04  0.00D+00 EMaxC= 1.00D-01 BMatC= 1.00D-04 BMatP= 9.25D-04
 IDIUse=3 WtCom= 9.96D-01 WtEn= 4.50D-03
 Coeff-Com:  0.120D-02-0.447D-02 0.412D-01 0.146D+00 0.318D+00 0.499D+00
 Coeff-En:   0.000D+00 0.000D+00 0.000D+00 0.000D+00 0.517D-01 0.948D+00
 Coeff:      0.119D-02-0.445D-02 0.410D-01 0.145D+00 0.316D+00 0.501D+00
 Gap=     0.197 Goal=   None    Shift=    0.000
 RMSDP=5.10D-05 MaxDP=1.58D-03 DE=-6.86D-04 OVMax= 2.62D-03

 Cycle   7  Pass 0  IDiag  1:
 E= -648.645688724875     Delta-E=       -0.000077314148 Rises=F Damp=F
 DIIS: error= 1.62D-04 at cycle   7 NSaved=   7.
 NSaved= 7 IEnMin= 7 EnMin= -648.645688724875     IErMin= 7 ErrMin= 1.62D-04
 ErrMax= 1.62D-04  0.00D+00 EMaxC= 1.00D-01 BMatC= 1.20D-05 BMatP= 1.00D-04
 IDIUse=3 WtCom= 9.98D-01 WtEn= 1.62D-03
 Coeff-Com:  0.374D-03-0.326D-02 0.144D-01 0.518D-01 0.142D+00 0.311D+00
 Coeff-Com:  0.483D+00
 Coeff-En:   0.000D+00 0.000D+00 0.000D+00 0.000D+00 0.000D+00 0.446D-01
 Coeff-En:   0.955D+00
 Coeff:      0.373D-03-0.326D-02 0.144D-01 0.517D-01 0.142D+00 0.311D+00
 Coeff:      0.484D+00
 Gap=     0.197 Goal=   None    Shift=    0.000
 RMSDP=1.64D-05 MaxDP=5.04D-04 DE=-7.73D-05 OVMax= 9.97D-04

 Cycle   8  Pass 0  IDiag  1:
 E= -648.645697962764     Delta-E=       -0.000009237888 Rises=F Damp=F
 DIIS: error= 5.77D-05 at cycle   8 NSaved=   8.
 NSaved= 8 IEnMin= 8 EnMin= -648.645697962764     IErMin= 8 ErrMin= 5.77D-05
 ErrMax= 5.77D-05  0.00D+00 EMaxC= 1.00D-01 BMatC= 1.07D-06 BMatP= 1.20D-05
 IDIUse=1 WtCom= 1.00D+00 WtEn= 0.00D+00
 Coeff-Com:  0.195D-03-0.165D-02 0.436D-02 0.148D-01 0.518D-01 0.130D+00
 Coeff-Com:  0.275D+00 0.526D+00
 Coeff:      0.195D-03-0.165D-02 0.436D-02 0.148D-01 0.518D-01 0.130D+00
 Coeff:      0.275D+00 0.526D+00
 Gap=     0.197 Goal=   None    Shift=    0.000
 RMSDP=5.01D-06 MaxDP=1.60D-04 DE=-9.24D-06 OVMax= 2.47D-04

 Initial convergence to 1.0D-05 achieved.  Increase integral accuracy.
 Cycle   9  Pass 1  IDiag  1:
 E= -648.645683349506     Delta-E=        0.000014613258 Rises=F Damp=F
 DIIS: error= 2.15D-05 at cycle   1 NSaved=   1.
 NSaved= 1 IEnMin= 1 EnMin= -648.645683349506     IErMin= 1 ErrMin= 2.15D-05
 ErrMax= 2.15D-05  0.00D+00 EMaxC= 1.00D-01 BMatC= 1.22D-07 BMatP= 1.22D-07
 IDIUse=1 WtCom= 1.00D+00 WtEn= 0.00D+00
 Coeff-Com:  0.100D+01
 Coeff:      0.100D+01
 Gap=     0.197 Goal=   None    Shift=    0.000
 RMSDP=5.01D-06 MaxDP=1.60D-04 DE= 1.46D-05 OVMax= 2.54D-04

 Cycle  10  Pass 1  IDiag  1:
 E= -648.645683041922     Delta-E=        0.000000307584 Rises=F Damp=F
 DIIS: error= 4.72D-05 at cycle   2 NSaved=   2.
 NSaved= 2 IEnMin= 1 EnMin= -648.645683349506     IErMin= 1 ErrMin= 2.15D-05
 ErrMax= 4.72D-05  0.00D+00 EMaxC= 1.00D-01 BMatC= 5.11D-07 BMatP= 1.22D-07
 IDIUse=1 WtCom= 1.00D+00 WtEn= 0.00D+00
 Coeff-Com:  0.674D+00 0.326D+00
 Coeff:      0.674D+00 0.326D+00
 Gap=     0.197 Goal=   None    Shift=    0.000
 RMSDP=3.21D-06 MaxDP=1.57D-04 DE= 3.08D-07 OVMax= 1.92D-04

 Cycle  11  Pass 1  IDiag  1:
 E= -648.645683451830     Delta-E=       -0.000000409908 Rises=F Damp=F
 DIIS: error= 2.44D-06 at cycle   3 NSaved=   3.
 NSaved= 3 IEnMin= 3 EnMin= -648.645683451830     IErMin= 3 ErrMin= 2.44D-06
 ErrMax= 2.44D-06  0.00D+00 EMaxC= 1.00D-01 BMatC= 3.71D-09 BMatP= 1.22D-07
 IDIUse=1 WtCom= 1.00D+00 WtEn= 0.00D+00
 Coeff-Com:  0.298D+00 0.160D+00 0.542D+00
 Coeff:      0.298D+00 0.160D+00 0.542D+00
 Gap=     0.197 Goal=   None    Shift=    0.000
 RMSDP=3.91D-07 MaxDP=1.29D-05 DE=-4.10D-07 OVMax= 2.32D-05

 Cycle  12  Pass 1  IDiag  1:
 E= -648.645683454138     Delta-E=       -0.000000002308 Rises=F Damp=F
 DIIS: error= 1.53D-06 at cycle   4 NSaved=   4.
 NSaved= 4 IEnMin= 4 EnMin= -648.645683454138     IErMin= 4 ErrMin= 1.53D-06
 ErrMax= 1.53D-06  0.00D+00 EMaxC= 1.00D-01 BMatC= 8.96D-10 BMatP= 3.71D-09
 IDIUse=1 WtCom= 1.00D+00 WtEn= 0.00D+00
 Coeff-Com:  0.616D-01 0.403D-01 0.340D+00 0.558D+00
 Coeff:      0.616D-01 0.403D-01 0.340D+00 0.558D+00
 Gap=     0.197 Goal=   None    Shift=    0.000
 RMSDP=1.91D-07 MaxDP=5.59D-06 DE=-2.31D-09 OVMax= 1.45D-05

 Cycle  13  Pass 1  IDiag  1:
 E= -648.645683454920     Delta-E=       -0.000000000782 Rises=F Damp=F
 DIIS: error= 6.69D-07 at cycle   5 NSaved=   5.
 NSaved= 5 IEnMin= 5 EnMin= -648.645683454920     IErMin= 5 ErrMin= 6.69D-07
 ErrMax= 6.69D-07  0.00D+00 EMaxC= 1.00D-01 BMatC= 1.54D-10 BMatP= 8.96D-10
 IDIUse=1 WtCom= 1.00D+00 WtEn= 0.00D+00
 Coeff-Com: -0.124D-02 0.453D-02 0.138D+00 0.362D+00 0.497D+00
 Coeff:     -0.124D-02 0.453D-02 0.138D+00 0.362D+00 0.497D+00
 Gap=     0.197 Goal=   None    Shift=    0.000
 RMSDP=6.99D-08 MaxDP=2.63D-06 DE=-7.82D-10 OVMax= 5.01D-06

 Cycle  14  Pass 1  IDiag  1:
 E= -648.645683455047     Delta-E=       -0.000000000128 Rises=F Damp=F
 DIIS: error= 1.57D-07 at cycle   6 NSaved=   6.
 NSaved= 6 IEnMin= 6 EnMin= -648.645683455047     IErMin= 6 ErrMin= 1.57D-07
 ErrMax= 1.57D-07  0.00D+00 EMaxC= 1.00D-01 BMatC= 1.47D-11 BMatP= 1.54D-10
 IDIUse=1 WtCom= 1.00D+00 WtEn= 0.00D+00
 Coeff-Com: -0.735D-02-0.134D-02 0.448D-01 0.159D+00 0.293D+00 0.512D+00
 Coeff:     -0.735D-02-0.134D-02 0.448D-01 0.159D+00 0.293D+00 0.512D+00
 Gap=     0.197 Goal=   None    Shift=    0.000
 RMSDP=2.01D-08 MaxDP=8.28D-07 DE=-1.28D-10 OVMax= 1.27D-06

 Cycle  15  Pass 1  IDiag  1:
 E= -648.645683455081     Delta-E=       -0.000000000033 Rises=F Damp=F
 DIIS: error= 8.79D-08 at cycle   7 NSaved=   7.
 NSaved= 7 IEnMin= 7 EnMin= -648.645683455081     IErMin= 7 ErrMin= 8.79D-08
 ErrMax= 8.79D-08  0.00D+00 EMaxC= 1.00D-01 BMatC= 2.64D-12 BMatP= 1.47D-11
 IDIUse=1 WtCom= 1.00D+00 WtEn= 0.00D+00
 Coeff-Com: -0.513D-02-0.141D-02 0.147D-01 0.687D-01 0.141D+00 0.345D+00
 Coeff-Com:  0.437D+00
 Coeff:     -0.513D-02-0.141D-02 0.147D-01 0.687D-01 0.141D+00 0.345D+00
 Coeff:      0.437D+00
 Gap=     0.197 Goal=   None    Shift=    0.000
 RMSDP=7.34D-09 MaxDP=2.97D-07 DE=-3.34D-11 OVMax= 3.99D-07

 SCF Done:  E(RB3LYP) =  -648.645683455     A.U. after   15 cycles
            NFock= 15  Conv=0.73D-08     -V/T= 2.0085
 KE= 6.431941058916D+02 PE=-3.064852347322D+03 EE= 9.976482933198D+02
 Leave Link  502 at Mon Aug  7 12:51:19 2023, MaxMem=   458752000 cpu:       109.5
 (Enter /opt/apps/apps/binapps/gaussian/g09d01_em64t/g09/l601.exe)
 Copying SCF densities to generalized density rwf, IOpCl= 0 IROHF=0.

 **********************************************************************

            Population analysis using the SCF density.

 **********************************************************************

 Orbital symmetries:
       Occupied  (A) (A) (A) (A) (A) (A) (A) (A) (A) (A) (A) (A)
                 (A) (A) (A) (A) (A) (A) (A) (A) (A) (A) (A) (A)
                 (A) (A) (A) (A) (A) (A) (A) (A) (A) (A) (A) (A)
                 (A) (A) (A) (A) (A) (A) (A) (A) (A) (A) (A)
       Virtual   (A) (A) (A) (A) (A) (A) (A) (A) (A) (A) (A) (A)
                 (A) (A) (A) (A) (A) (A) (A) (A) (A) (A) (A) (A)
                 (A) (A) (A) (A) (A) (A) (A) (A) (A) (A) (A) (A)
                 (A) (A) (A) (A) (A) (A) (A) (A) (A) (A) (A) (A)
                 (A) (A) (A) (A) (A) (A) (A) (A) (A) (A) (A) (A)
                 (A) (A) (A) (A) (A) (A) (A) (A) (A) (A) (A) (A)
                 (A) (A) (A) (A) (A) (A) (A) (A) (A) (A) (A) (A)
                 (A) (A) (A) (A) (A) (A) (A) (A) (A) (A) (A) (A)
                 (A) (A) (A) (A) (A) (A) (A) (A) (A) (A) (A) (A)
                 (A) (A) (A) (A) (A) (A) (A) (A) (A) (A) (A) (A)
                 (A) (A) (A) (A) (A) (A) (A) (A) (A) (A) (A) (A)
                 (A) (A) (A) (A) (A) (A) (A) (A) (A) (A) (A) (A)
                 (A) (A) (A) (A) (A) (A) (A) (A) (A) (A) (A) (A)
                 (A) (A) (A) (A) (A) (A) (A) (A)
 The electronic state is 1-A.
 Alpha  occ. eigenvalues --  -19.25481 -19.18957 -19.16517 -19.11310 -10.35788
 Alpha  occ. eigenvalues --  -10.30581 -10.29800 -10.22957 -10.22087 -10.22064
 Alpha  occ. eigenvalues --  -10.21781 -10.21208 -10.20531  -1.16606  -1.12841
 Alpha  occ. eigenvalues --   -1.04118  -1.00637  -0.88167  -0.81027  -0.78835
 Alpha  occ. eigenvalues --   -0.75744  -0.69674  -0.66150  -0.60549  -0.59707
 Alpha  occ. eigenvalues --   -0.55907  -0.52698  -0.52633  -0.51364  -0.49085
 Alpha  occ. eigenvalues --   -0.47055  -0.46510  -0.45518  -0.44034  -0.43281
 Alpha  occ. eigenvalues --   -0.42443  -0.41343  -0.40728  -0.38127  -0.38016
 Alpha  occ. eigenvalues --   -0.36180  -0.34547  -0.30672  -0.29643  -0.27788
 Alpha  occ. eigenvalues --   -0.25931  -0.25680
 Alpha virt. eigenvalues --   -0.06002  -0.04504  -0.01428   0.04738   0.07162
 Alpha virt. eigenvalues --    0.09066   0.12002   0.12555   0.12923   0.14289
 Alpha virt. eigenvalues --    0.15228   0.16026   0.17478   0.18955   0.21798
 Alpha virt. eigenvalues --    0.23850   0.26823   0.27246   0.29766   0.30336
 Alpha virt. eigenvalues --    0.31778   0.34393   0.38224   0.40977   0.46383
 Alpha virt. eigenvalues --    0.47377   0.48815   0.50860   0.51248   0.52772
 Alpha virt. eigenvalues --    0.52957   0.54601   0.55394   0.55873   0.56340
 Alpha virt. eigenvalues --    0.57506   0.59410   0.59908   0.60947   0.61563
 Alpha virt. eigenvalues --    0.62230   0.64265   0.66643   0.67697   0.69005
 Alpha virt. eigenvalues --    0.71285   0.73715   0.74170   0.78568   0.78693
 Alpha virt. eigenvalues --    0.81324   0.82997   0.83198   0.84054   0.85575
 Alpha virt. eigenvalues --    0.86685   0.88723   0.89526   0.90480   0.93065
 Alpha virt. eigenvalues --    0.94243   0.95627   0.96873   0.98904   1.00486
 Alpha virt. eigenvalues --    1.02926   1.03106   1.06085   1.06523   1.08213
 Alpha virt. eigenvalues --    1.10883   1.12247   1.14597   1.15646   1.17289
 Alpha virt. eigenvalues --    1.21737   1.22753   1.24451   1.28914   1.30285
 Alpha virt. eigenvalues --    1.33542   1.36162   1.36861   1.39206   1.43280
 Alpha virt. eigenvalues --    1.45725   1.48011   1.48753   1.48798   1.51565
 Alpha virt. eigenvalues --    1.58177   1.65278   1.66837   1.67800   1.69687
 Alpha virt. eigenvalues --    1.73203   1.74503   1.76352   1.78485   1.79299
 Alpha virt. eigenvalues --    1.80552   1.81277   1.82576   1.84795   1.86843
 Alpha virt. eigenvalues --    1.87765   1.89603   1.91874   1.93013   1.94191
 Alpha virt. eigenvalues --    1.95547   1.97901   2.04194   2.04760   2.07430
 Alpha virt. eigenvalues --    2.09112   2.12716   2.16102   2.17721   2.19501
 Alpha virt. eigenvalues --    2.21428   2.22733   2.25549   2.28226   2.31965
 Alpha virt. eigenvalues --    2.32725   2.38887   2.41462   2.44676   2.47701
 Alpha virt. eigenvalues --    2.51918   2.53109   2.56133   2.58111   2.58799
 Alpha virt. eigenvalues --    2.62873   2.65064   2.70646   2.71646   2.76117
 Alpha virt. eigenvalues --    2.77879   2.80088   2.82311   2.89663   2.89901
 Alpha virt. eigenvalues --    2.95384   3.00207   3.09633   3.14514   3.30886
 Alpha virt. eigenvalues --    3.37747   3.87762   3.95071   4.05892   4.08359
 Alpha virt. eigenvalues --    4.10013   4.11490   4.18003   4.30875   4.32052
 Alpha virt. eigenvalues --    4.40391   4.43255   4.52832   4.76631
          Condensed to atoms (all electrons):
               1          2          3          4          5          6
     1  C    4.980788  -0.048281   0.460581  -0.024736   0.000003   0.501743
     2  C   -0.048281   4.996883  -0.023912   0.517378   0.000445  -0.044215
     3  C    0.460581  -0.023912   4.940678   0.537190   0.000000  -0.023392
     4  C   -0.024736   0.517378   0.537190   4.843233  -0.000001  -0.028476
     5  C    0.000003   0.000445   0.000000  -0.000001   5.272310  -0.000426
     6  C    0.501743  -0.044215  -0.023392  -0.028476  -0.000426   5.246390
     7  C   -0.033962   0.490896  -0.039022  -0.018457   0.004189   0.441109
     8  O    0.009943  -0.000063   0.001001  -0.000022   0.000000  -0.101377
     9  O   -0.000006   0.001802   0.000000   0.000131  -0.085345  -0.000237
    10  O    0.004609   0.000011  -0.000073  -0.000006   0.000035  -0.102878
    11  C   -0.040591   0.005445   0.007219  -0.000166   0.000005   0.245222
    12  C   -0.000027   0.001157   0.000025   0.000199   0.358084   0.000758
    13  O    0.003331  -0.056941  -0.000046   0.003531  -0.091293  -0.058789
    14  H   -0.001341   0.000139  -0.000228   0.000045  -0.000179   0.018522
    15  H    0.370253   0.000252  -0.047194   0.005053   0.000000  -0.037686
    16  H    0.000567   0.351093   0.004971  -0.038913  -0.000047   0.003201
    17  H   -0.039389   0.006569   0.363138  -0.046802   0.000000   0.004208
    18  H    0.005381  -0.040086  -0.043914   0.362669   0.000000   0.000406
    19  H    0.000000   0.000001   0.000000  -0.000001   0.357357   0.000005
    20  H    0.000000  -0.000042   0.000000  -0.000001   0.342045   0.000006
    21  H    0.000000   0.000001   0.000000   0.000000   0.370274   0.000013
               7          8          9         10         11         12
     1  C   -0.033962   0.009943  -0.000006   0.004609  -0.040591  -0.000027
     2  C    0.490896  -0.000063   0.001802   0.000011   0.005445   0.001157
     3  C   -0.039022   0.001001   0.000000  -0.000073   0.007219   0.000025
     4  C   -0.018457  -0.000022   0.000131  -0.000006  -0.000166   0.000199
     5  C    0.004189   0.000000  -0.085345   0.000035   0.000005   0.358084
     6  C    0.441109  -0.101377  -0.000237  -0.102878   0.245222   0.000758
     7  C    4.730027   0.002602  -0.001422  -0.001334  -0.033044  -0.012761
     8  O    0.002602   8.031101   0.000000  -0.107278   0.616207   0.000002
     9  O   -0.001422   0.000000   8.052611  -0.000008  -0.000005   0.532134
    10  O   -0.001334  -0.107278  -0.000008   8.212170   0.304768   0.000335
    11  C   -0.033044   0.616207  -0.000005   0.304768   4.422153   0.000003
    12  C   -0.012761   0.000002   0.532134   0.000335   0.000003   4.362428
    13  O    0.190593  -0.000002  -0.066466  -0.017045   0.000247   0.236658
    14  H   -0.007075   0.004518   0.000186   0.221902  -0.051587   0.000532
    15  H    0.003139   0.006323   0.000000   0.000245  -0.005156   0.000000
    16  H   -0.033740   0.000000   0.005629   0.000002  -0.000062   0.004892
    17  H    0.000936   0.000003   0.000000   0.000001  -0.000140   0.000000
    18  H    0.004117   0.000000  -0.000004   0.000000   0.000006  -0.000013
    19  H   -0.000072   0.000000   0.003987   0.000000   0.000001  -0.035186
    20  H   -0.000110   0.000000   0.003189   0.000011   0.000002  -0.019416
    21  H   -0.000127   0.000000  -0.000873   0.000010  -0.000002  -0.015264
              13         14         15         16         17         18
     1  C    0.003331  -0.001341   0.370253   0.000567  -0.039389   0.005381
     2  C   -0.056941   0.000139   0.000252   0.351093   0.006569  -0.040086
     3  C   -0.000046  -0.000228  -0.047194   0.004971   0.363138  -0.043914
     4  C    0.003531   0.000045   0.005053  -0.038913  -0.046802   0.362669
     5  C   -0.091293  -0.000179   0.000000  -0.000047   0.000000   0.000000
     6  C   -0.058789   0.018522  -0.037686   0.003201   0.004208   0.000406
     7  C    0.190593  -0.007075   0.003139  -0.033740   0.000936   0.004117
     8  O   -0.000002   0.004518   0.006323   0.000000   0.000003   0.000000
     9  O   -0.066466   0.000186   0.000000   0.005629   0.000000  -0.000004
    10  O   -0.017045   0.221902   0.000245   0.000002   0.000001   0.000000
    11  C    0.000247  -0.051587  -0.005156  -0.000062  -0.000140   0.000006
    12  C    0.236658   0.000532   0.000000   0.004892   0.000000  -0.000013
    13  O    8.339438   0.027893  -0.000022  -0.005198   0.000002  -0.000042
    14  H    0.027893   0.362341  -0.000081  -0.000021   0.000000   0.000001
    15  H   -0.000022  -0.000081   0.529810   0.000012  -0.005304  -0.000219
    16  H   -0.005198  -0.000021   0.000012   0.543322  -0.000246  -0.006105
    17  H    0.000002   0.000000  -0.005304  -0.000246   0.582721  -0.007257
    18  H   -0.000042   0.000001  -0.000219  -0.006105  -0.007257   0.577923
    19  H    0.003668  -0.000002   0.000000   0.000035   0.000000   0.000000
    20  H    0.004110   0.000175   0.000000  -0.000021   0.000000   0.000000
    21  H    0.000661   0.000023   0.000000   0.000003   0.000000   0.000000
              19         20         21
     1  C    0.000000   0.000000   0.000000
     2  C    0.000001  -0.000042   0.000001
     3  C    0.000000   0.000000   0.000000
     4  C   -0.000001  -0.000001   0.000000
     5  C    0.357357   0.342045   0.370274
     6  C    0.000005   0.000006   0.000013
     7  C   -0.000072  -0.000110  -0.000127
     8  O    0.000000   0.000000   0.000000
     9  O    0.003987   0.003189  -0.000873
    10  O    0.000000   0.000011   0.000010
    11  C    0.000001   0.000002  -0.000002
    12  C   -0.035186  -0.019416  -0.015264
    13  O    0.003668   0.004110   0.000661
    14  H   -0.000002   0.000175   0.000023
    15  H    0.000000   0.000000   0.000000
    16  H    0.000035  -0.000021   0.000003
    17  H    0.000000   0.000000   0.000000
    18  H    0.000000   0.000000   0.000000
    19  H    0.506362  -0.020854  -0.015094
    20  H   -0.020854   0.538989  -0.026316
    21  H   -0.015094  -0.026316   0.471454
 Mulliken charges:
               1
     1  C   -0.148866
     2  C   -0.158531
     3  C   -0.137022
     4  C   -0.111848
     5  C   -0.527457
     6  C   -0.064106
     7  C    0.313518
     8  O   -0.462958
     9  O   -0.445303
    10  O   -0.515475
    11  C    0.529476
    12  C    0.585460
    13  O   -0.514286
    14  H    0.424236
    15  H    0.180578
    16  H    0.170626
    17  H    0.141561
    18  H    0.147136
    19  H    0.199793
    20  H    0.178233
    21  H    0.215237
 Sum of Mulliken charges =   0.00000
 Mulliken charges with hydrogens summed into heavy atoms:
               1
     1  C    0.031712
     2  C    0.012095
     3  C    0.004539
     4  C    0.035288
     5  C    0.065805
     6  C   -0.064106
     7  C    0.313518
     8  O   -0.462958
     9  O   -0.445303
    10  O   -0.091239
    11  C    0.529476
    12  C    0.585460
    13  O   -0.514286
 Electronic spatial extent (au):  <R**2>=           2422.0016
 Charge=              0.0000 electrons
 Dipole moment (field-independent basis, Debye):
    X=             -2.4477    Y=              3.2754    Z=             -2.7469  Tot=              4.9259
 Quadrupole moment (field-independent basis, Debye-Ang):
   XX=            -69.3967   YY=            -78.8092   ZZ=            -75.3081
   XY=             15.9236   XZ=              2.3089   YZ=             -0.6541
 Traceless Quadrupole moment (field-independent basis, Debye-Ang):
   XX=              5.1079   YY=             -4.3046   ZZ=             -0.8034
   XY=             15.9236   XZ=              2.3089   YZ=             -0.6541
 Octapole moment (field-independent basis, Debye-Ang**2):
  XXX=            -25.6146  YYY=             37.4380  ZZZ=              0.5650  XYY=            -16.7639
  XXY=              4.7550  XXZ=            -19.7792  XZZ=             -4.7855  YZZ=            -12.2619
  YYZ=             -5.8020  XYZ=             10.0744
 Hexadecapole moment (field-independent basis, Debye-Ang**3):
 XXXX=          -1716.9707 YYYY=          -1115.6859 ZZZZ=           -131.6861 XXXY=            106.0752
 XXXZ=             10.5660 YYYX=             63.0812 YYYZ=             -0.0275 ZZZX=              2.7351
 ZZZY=              5.9019 XXYY=           -512.3276 XXZZ=           -346.6300 YYZZ=           -215.8286
 XXYZ=             -3.5675 YYXZ=             -8.3627 ZZXY=             -3.7535
 N-N= 7.753642646559D+02 E-N=-3.064852353131D+03  KE= 6.431941058916D+02
 No NMR shielding tensors so no spin-rotation constants.
 Leave Link  601 at Mon Aug  7 12:51:19 2023, MaxMem=   458752000 cpu:         0.2
 (Enter /opt/apps/apps/binapps/gaussian/g09d01_em64t/g09/l602.exe)
 FitSet:  NAtFit=    21 NAtPot=    21 NAtFrz=     0 MDM=    25 TotChg=   0.00000
 Merz-Kollman atomic radii used.

 **********************************************************************

            Electrostatic Properties Using The SCF Density

 **********************************************************************

       Atomic Center    1 is at   2.401193  0.451243 -0.100405
       Atomic Center    2 is at  -0.052772  1.839160 -0.152344
       Atomic Center    3 is at   2.337082  1.879306 -0.190085
       Atomic Center    4 is at   1.125481  2.542302 -0.083029
       Atomic Center    5 is at  -3.534639 -0.748646 -0.409652
       Atomic Center    6 is at   1.217930 -0.259093  0.032067
       Atomic Center    7 is at  -0.059869  0.413520 -0.112086
       Atomic Center    8 is at   2.323533 -2.271356  0.530375
       Atomic Center    9 is at  -2.656541  1.019880  0.936189
       Atomic Center   10 is at   0.383648 -2.384623 -0.342719
       Atomic Center   11 is at   1.314184 -1.689224  0.208952
       Atomic Center   12 is at  -2.425734  0.105709  0.119051
       Atomic Center   13 is at  -1.196309 -0.313835 -0.220845
       Atomic Center   14 is at  -0.070910 -1.620082 -0.758650
       Atomic Center   15 is at   3.428453  0.111810 -0.121042
       Atomic Center   16 is at  -0.983263  2.452870 -0.221552
       Atomic Center   17 is at   3.171005  2.496163 -0.219526
       Atomic Center   18 is at   1.150103  3.619975 -0.155228
       Atomic Center   19 is at  -4.305015  0.036212 -0.427369
       Atomic Center   20 is at  -3.346576 -1.127496 -1.407863
       Atomic Center   21 is at  -3.815581 -1.575641  0.212420
    1022 points will be used for fitting atomic charges
 Fitting point charges to electrostatic potential
 Charges from ESP fit, RMS=   0.00106 RRMS=   0.05235:
 ESP charges:
               1
     1  C   -0.052698
     2  C   -0.337283
     3  C   -0.194352
     4  C   -0.002706
     5  C   -0.512311
     6  C   -0.320970
     7  C    0.422590
     8  O   -0.520544
     9  O   -0.476107
    10  O   -0.500200
    11  C    0.740507
    12  C    0.740948
    13  O   -0.407834
    14  H    0.351462
    15  H    0.154867
    16  H    0.179795
    17  H    0.144678
    18  H    0.119102
    19  H    0.131060
    20  H    0.150752
    21  H    0.189244
 Sum of ESP charges =   0.00000
 ESP charges with hydrogens summed into heavy atoms:
               1
     1  C    0.102168
     2  C   -0.157488
     3  C   -0.049674
     4  C    0.116396
     5  C   -0.041254
     6  C   -0.320970
     7  C    0.422590
     8  O   -0.520544
     9  O   -0.476107
    10  O   -0.148738
    11  C    0.740507
    12  C    0.740948
    13  O   -0.407834
 Charge=   0.00000 Dipole=    -2.4500     3.3047    -2.7611 Tot=     4.9545
 -----------------------------------------------------------------

              Electrostatic Properties (Atomic Units)

 -----------------------------------------------------------------
    Center     Electric         -------- Electric Field --------
               Potential          X             Y             Z
 -----------------------------------------------------------------
    1 Atom    -14.707064
    2 Atom    -14.706650
    3 Atom    -14.724270
    4 Atom    -14.717874
    5 Atom    -14.707193
    6 Atom    -14.698726
    7 Atom    -14.625808
    8 Atom    -22.354133
    9 Atom    -22.303325
   10 Atom    -22.275380
   11 Atom    -14.623849
   12 Atom    -14.568060
   13 Atom    -22.205656
   14 Atom     -0.944866
   15 Atom     -1.082943
   16 Atom     -1.079213
   17 Atom     -1.093977
   18 Atom     -1.085538
   19 Atom     -1.077374
   20 Atom     -1.076335
   21 Atom     -1.064661
 -----------------------------------------------------------------
 Leave Link  602 at Mon Aug  7 12:51:20 2023, MaxMem=   458752000 cpu:         0.2
 (Enter /opt/apps/apps/binapps/gaussian/g09d01_em64t/g09/l701.exe)
 Compute integral first derivatives.
 ... and contract with generalized density number  0.
 R6Disp: Adding Grimme-D3 dispersion energy 1st derivatives to the gradient.
 Leave Link  701 at Mon Aug  7 12:51:20 2023, MaxMem=   458752000 cpu:         0.2
 (Enter /opt/apps/apps/binapps/gaussian/g09d01_em64t/g09/l702.exe)
 L702 exits ... SP integral derivatives will be done elsewhere.
 Leave Link  702 at Mon Aug  7 12:51:20 2023, MaxMem=   458752000 cpu:         0.0
 (Enter /opt/apps/apps/binapps/gaussian/g09d01_em64t/g09/l703.exe)
 Compute integral first derivatives, UseDBF=F ICtDFT=           0.
 Integral derivatives from FoFJK, PRISM(SPDF).
 Calling FoFJK, ICntrl=      2127 FMM=F ISym2X=0 I1Cent= 0 IOpClX= 0 NMat=1 NMatS=1 NMatT=0.
 FoFJK:  IHMeth= 1 ICntrl=    2127 DoSepK=F KAlg= 0 I1Cent=   0 FoldK=F
 IRaf=         0 NMat=   1 IRICut=       1 DoRegI=T DoRafI=F ISym2E= 0.
 FoFCou: FMM=F IPFlag=           0 FMFlag=      100000 FMFlg1=         800
         NFxFlg=           0 DoJE=F BraDBF=F KetDBF=F FulRan=T
         wScrn=  0.000000 ICntrl=    2127 IOpCl=  0 I1Cent=           0 NGrid=           0
         NMat0=    1 NMatS0=      1 NMatT0=    0 NMatD0=    1 NMtDS0=    0 NMtDT0=    0
 Symmetry not used in FoFCou.
 Leave Link  703 at Mon Aug  7 12:51:49 2023, MaxMem=   458752000 cpu:        29.4
 (Enter /opt/apps/apps/binapps/gaussian/g09d01_em64t/g09/l716.exe)
 Dipole        =-9.62993585D-01 1.28862755D+00-1.08070086D+00
 ***** Axes restored to original set *****
 -------------------------------------------------------------------
 Center     Atomic                   Forces (Hartrees/Bohr)
 Number     Number              X              Y              Z
 -------------------------------------------------------------------
      1        6          -0.003644669    0.016560938    0.064085064
      2        6          -0.026553581    0.021749806   -0.020087399
      3        6          -0.024859051   -0.003980976   -0.044185245
      4        6           0.024348055    0.002067389   -0.000291449
      5        6           0.007358251    0.022730635    0.025887809
      6        6          -0.020186305    0.026538905    0.017520870
      7        6           0.015641924   -0.026086613    0.068780069
      8        8          -0.007698956   -0.031710396    0.014777681
      9        8           0.048742723    0.005666600   -0.032264989
     10        8          -0.021063412    0.061547073   -0.027388042
     11        6           0.054539591   -0.054276547   -0.001330282
     12        6          -0.071023763   -0.019385163    0.029996216
     13        8           0.013509061    0.006008417   -0.016833182
     14        1          -0.006303377    0.013724561   -0.042289766
     15        1          -0.004277351   -0.005193585   -0.022901637
     16        1           0.008843651   -0.016375644   -0.014436566
     17        1           0.026851922   -0.018708258    0.023783803
     18        1          -0.007846799    0.003281906    0.002830299
     19        1          -0.002437124    0.004847929   -0.019259114
     20        1           0.006118827    0.002246821   -0.001208105
     21        1          -0.010059616   -0.011253798   -0.005186036
 -------------------------------------------------------------------
 Cartesian Forces:  Max     0.071023763 RMS     0.026871365
 Z-matrix is all fixed cartesians, so copy forces.
 Leave Link  716 at Mon Aug  7 12:51:50 2023, MaxMem=   458752000 cpu:         0.0
 (Enter /opt/apps/apps/binapps/gaussian/g09d01_em64t/g09/l103.exe)

 GradGradGradGradGradGradGradGradGradGradGradGradGradGradGradGradGradGrad
 Berny optimization.
 Search for a local minimum.
 Step number   1 out of a maximum of    2
 All quantities printed in internal units (Hartrees-Bohrs-Radians)
 Second derivative matrix not updated -- first step.
 ITU=  0
     Eigenvalues ---    0.00099   0.00153   0.00190   0.00402   0.00493
     Eigenvalues ---    0.00860   0.01044   0.01381   0.01668   0.02650
     Eigenvalues ---    0.03049   0.03404   0.03599   0.04585   0.05298
     Eigenvalues ---    0.05380   0.06828   0.07055   0.07313   0.07625
     Eigenvalues ---    0.09203   0.09717   0.10433   0.12216   0.13403
     Eigenvalues ---    0.13768   0.14115   0.15210   0.17293   0.18998
     Eigenvalues ---    0.21668   0.22387   0.24464   0.29300   0.31700
     Eigenvalues ---    0.32652   0.38323   0.43588   0.47246   0.51370
     Eigenvalues ---    0.64303   0.68900   0.75791   0.92688   0.95304
     Eigenvalues ---    1.00691   1.05758   1.10023   1.18581   1.22261
     Eigenvalues ---    1.43100   1.46135   1.52136   1.63562   1.75007
     Eigenvalues ---    2.06084   2.39095
 Quadratic step=2.345D+00 exceeds max=3.000D-01 adjusted using Lamda=-2.452D-01.
 Angle between NR and scaled steps=  51.58 degrees.
 Angle between quadratic step and forces=  39.77 degrees.
 Linear search not attempted -- first point.
 TrRot=  0.000000  0.000000  0.000000  0.000000  0.000000  0.000000
 MatCor failed.
 Variable       Old X    -DE/DX   Delta X   Delta X   Delta X     New X
                                 (Linear)    (Quad)   (Total)
    X1       26.03895  -0.00364   0.00000  -0.01886  -0.01886  26.02008
    Y1       20.61955   0.01656   0.00000   0.01290   0.01290  20.63245
    Z1       25.39567   0.06409   0.00000   0.06204   0.06204  25.45771
    X2       22.62394  -0.02655   0.00000  -0.02622  -0.02622  22.59772
    Y2       24.59859   0.02175   0.00000   0.01692   0.01692  24.61552
    Z2       26.34347  -0.02009   0.00000  -0.00545  -0.00545  26.33803
    X3       25.72125  -0.02486   0.00000  -0.01872  -0.01872  25.70253
    Y3       21.68306  -0.00398   0.00000  -0.01311  -0.01311  21.66995
    Z3       27.86430  -0.04419   0.00000  -0.00595  -0.00595  27.85835
    X4       23.85912   0.02435   0.00000   0.02722   0.02722  23.88634
    Y4       23.46428   0.00207   0.00000   0.02708   0.02708  23.49135
    Z4       28.32539  -0.00029   0.00000  -0.00873  -0.00873  28.31666
    X5       19.17364   0.00736   0.00000  -0.00223  -0.00223  19.17141
    Y5       27.70761   0.02273   0.00000   0.02882   0.02882  27.73643
    Z5       19.57045   0.02589   0.00000   0.02293   0.02293  19.59338
    X6       24.52299  -0.02019   0.00000  -0.00304  -0.00304  24.51994
    Y6       21.49753   0.02654   0.00000   0.01363   0.01363  21.51116
    Z6       23.44748   0.01752   0.00000   0.03294   0.03294  23.48041
    X7       22.91761   0.01564   0.00000  -0.00539  -0.00539  22.91223
    Y7       23.68885  -0.02609   0.00000  -0.02399  -0.02399  23.66485
    Z7       23.82353   0.06878   0.00000   0.06428   0.06428  23.88781
    X8       25.75975  -0.00770   0.00000  -0.01877  -0.01877  25.74098
    Y8       18.25351  -0.03171   0.00000  -0.08817  -0.08817  18.16534
    Z8       20.68006   0.01478   0.00000   0.01849   0.01849  20.69855
    X9       18.01052   0.04874   0.00000   0.03998   0.03998  18.05050
    Y9       25.96301   0.00567   0.00000   0.00012   0.00012  25.96312
    Z9       23.56975  -0.03226   0.00000  -0.00187  -0.00187  23.56788
   X10       24.50272  -0.02106   0.00000  -0.02983  -0.02983  24.47289
   Y10       21.72754   0.06155   0.00000   0.06191   0.06191  21.78945
   Z10       19.08084  -0.02739   0.00000  -0.04245  -0.04245  19.03839
   X11       24.76295   0.05454   0.00000   0.10737   0.10737  24.87032
   Y11       20.28098  -0.05428   0.00000  -0.01287  -0.01287  20.26811
   Z11       21.01621  -0.00133   0.00000  -0.02664  -0.02664  20.98957
   X12       19.65347  -0.07102   0.00000  -0.05269  -0.05269  19.60077
   Y12       26.16409  -0.01939   0.00000  -0.04894  -0.04894  26.11516
   Z12       21.89066   0.03000   0.00000  -0.01345  -0.01345  21.87720
   X13       21.79595   0.01351   0.00000   0.01565   0.01565  21.81161
   Y13       24.80663   0.00601   0.00000   0.00128   0.00128  24.80790
   Z13       21.81457  -0.01683   0.00000   0.00851   0.00851  21.82308
   X14       24.29886  -0.00630   0.00000  -0.02944  -0.02944  24.26942
   Y14       23.29319   0.01372   0.00000   0.08713   0.08713  23.38032
   Z14       20.05562  -0.04229   0.00000  -0.12842  -0.12842  19.92720
   X15       27.46588  -0.00428   0.00000  -0.02115  -0.02115  27.44474
   Y15       19.15504  -0.00519   0.00000  -0.00423  -0.00423  19.15081
   Z15       25.41643  -0.02290   0.00000  -0.05837  -0.05837  25.35806
   X16       21.37485   0.00884   0.00000  -0.00313  -0.00313  21.37173
   Y16       26.22390  -0.01638   0.00000  -0.01832  -0.01832  26.20558
   Z16       26.84561  -0.01444   0.00000  -0.04318  -0.04318  26.80243
   X17       26.67299   0.02685   0.00000   0.04834   0.04834  26.72133
   Y17       21.05319  -0.01871   0.00000  -0.04021  -0.04021  21.01298
   Z17       29.45892   0.02378   0.00000   0.01752   0.01752  29.47644
   X18       23.71891  -0.00785   0.00000  -0.01542  -0.01542  23.70350
   Y18       24.18135   0.00328   0.00000   0.01249   0.01249  24.19384
   Z18       30.23177   0.00283   0.00000  -0.00001  -0.00001  30.23176
   X19       18.01585  -0.00244   0.00000  -0.01781  -0.01781  17.99804
   Y19       29.17092   0.00485   0.00000   0.03589   0.03589  29.20681
   Z19       20.48615  -0.01926   0.00000  -0.05142  -0.05142  20.43474
   X20       20.87538   0.00612   0.00000   0.01333   0.01333  20.88872
   Y20       28.51945   0.00225   0.00000   0.00674   0.00674  28.52619
   Z20       18.76913  -0.00121   0.00000   0.00676   0.00676  18.77588
   X21       18.17061  -0.01006   0.00000  -0.01281  -0.01281  18.15781
   Y21       26.75983  -0.01125   0.00000  -0.01024  -0.01024  26.74959
   Z21       18.08662  -0.00519   0.00000   0.00731   0.00731  18.09394
         Item               Value     Threshold  Converged?
 Maximum Force            0.071024     0.000450     NO 
 RMS     Force            0.026871     0.000300     NO 
 Maximum Displacement     0.128416     0.001800     NO 
 RMS     Displacement     0.037808     0.001200     NO 
 Predicted change in Energy=-3.563680D-02
 GradGradGradGradGradGradGradGradGradGradGradGradGradGradGradGradGradGrad

 Leave Link  103 at Mon Aug  7 12:51:50 2023, MaxMem=   458752000 cpu:         0.0
 (Enter /opt/apps/apps/binapps/gaussian/g09d01_em64t/g09/l9999.exe)
 1\1\GINC-NODE692\Force\RB3LYP\6-31G(d)\C9H8O4\MBDX6CW3\07-Aug-2023\0\\
 #p b3lyp/6-31g* pop=mk empiricaldispersion=gd3 int(ultrafine) force\\a
 spirin\\0,1\C,13.7792182,10.91139793,13.43881011\C,11.97207093,13.0170
 1427,13.94036531\C,13.61110091,11.47418022,14.745152\C,12.62570381,12.
 41676092,14.98915195\C,10.14625311,14.66223478,10.3562355\C,12.9770064
 4,11.37600183,12.40787029\C,12.12747931,12.53559709,12.60687113\O,13.6
 314702,9.65933979,10.94341755\O,9.53075647,13.73903155,12.47257471\O,1
 2.96628356,11.4977169,10.09714723\C,13.10398817,10.73223114,11.1212992
 7\C,10.40016651,13.84544134,11.58403754\O,11.53392076,13.12710166,11.5
 4377103\H,12.85840392,12.32622504,10.61297655\H,14.53431845,10.13641,1
 3.44979763\H,11.31108522,13.8770926,14.20608282\H,14.1147387,11.140868
 66,15.58898807\H,12.55150795,12.7962172,15.99796534\H,9.53357935,15.43
 658376,10.84080577\H,11.04677796,15.0918448,9.93219495\H,9.61547494,14
 .1606915,9.57102776\\Version=ES64L-G09RevD.01\State=1-A\HF=-648.645683
 5\RMSD=7.337e-09\RMSF=2.687e-02\Dipole=-0.0400528,1.7837875,0.7565248\
 Quadrupole=-2.5351813,-2.2349036,4.7700849,1.8680384,8.3736829,-8.0718
 579\PG=C01 [X(C9H8O4)]\\@


 MEN HAVE BECOME THE TOOLS OF THEIR TOOLS... THOREAU   
 Job cpu time:       0 days  0 hours  2 minutes 28.0 seconds.
 File lengths (MBytes):  RWF=     20 Int=      0 D2E=      0 Chk=      3 Scr=      1
 Normal termination of Gaussian 09 at Mon Aug  7 12:51:50 2023.
