 Entering Gaussian System, Link 0=/opt/apps/apps/binapps/gaussian/g09d01_em64t/g09/g09
 Initial command:
 /opt/apps/apps/binapps/gaussian/g09d01_em64t/g09/l1.exe "/net/scratch2/mbdx6cw3/aspirin/300K-meta/dft/qm_input/gau_temp_17/Gau-2992.inp" -scrdir="/net/scratch2/mbdx6cw3/aspirin/300K-meta/dft/qm_input/gau_temp_17/"
 Entering Link 1 = /opt/apps/apps/binapps/gaussian/g09d01_em64t/g09/l1.exe PID=      3004.
  
 Copyright (c) 1988,1990,1992,1993,1995,1998,2003,2009,2013,
            Gaussian, Inc.  All Rights Reserved.
  
 This is part of the Gaussian(R) 09 program.  It is based on
 the Gaussian(R) 03 system (copyright 2003, Gaussian, Inc.),
 the Gaussian(R) 98 system (copyright 1998, Gaussian, Inc.),
 the Gaussian(R) 94 system (copyright 1995, Gaussian, Inc.),
 the Gaussian 92(TM) system (copyright 1992, Gaussian, Inc.),
 the Gaussian 90(TM) system (copyright 1990, Gaussian, Inc.),
 the Gaussian 88(TM) system (copyright 1988, Gaussian, Inc.),
 the Gaussian 86(TM) system (copyright 1986, Carnegie Mellon
 University), and the Gaussian 82(TM) system (copyright 1983,
 Carnegie Mellon University). Gaussian is a federally registered
 trademark of Gaussian, Inc.
  
 This software contains proprietary and confidential information,
 including trade secrets, belonging to Gaussian, Inc.
  
 This software is provided under written license and may be
 used, copied, transmitted, or stored only in accord with that
 written license.
  
 The following legend is applicable only to US Government
 contracts under FAR:
  
                    RESTRICTED RIGHTS LEGEND
  
 Use, reproduction and disclosure by the US Government is
 subject to restrictions as set forth in subparagraphs (a)
 and (c) of the Commercial Computer Software - Restricted
 Rights clause in FAR 52.227-19.
  
 Gaussian, Inc.
 340 Quinnipiac St., Bldg. 40, Wallingford CT 06492
  
  
 ---------------------------------------------------------------
 Warning -- This program may not be used in any manner that
 competes with the business of Gaussian, Inc. or will provide
 assistance to any competitor of Gaussian, Inc.  The licensee
 of this program is prohibited from giving any competitor of
 Gaussian, Inc. access to this program.  By using this program,
 the user acknowledges that Gaussian, Inc. is engaged in the
 business of creating and licensing software in the field of
 computational chemistry and represents and warrants to the
 licensee that it is not a competitor of Gaussian, Inc. and that
 it will not use this program in any manner prohibited above.
 ---------------------------------------------------------------
  

 Cite this work as:
 Gaussian 09, Revision D.01,
 M. J. Frisch, G. W. Trucks, H. B. Schlegel, G. E. Scuseria, 
 M. A. Robb, J. R. Cheeseman, G. Scalmani, V. Barone, B. Mennucci, 
 G. A. Petersson, H. Nakatsuji, M. Caricato, X. Li, H. P. Hratchian, 
 A. F. Izmaylov, J. Bloino, G. Zheng, J. L. Sonnenberg, M. Hada, 
 M. Ehara, K. Toyota, R. Fukuda, J. Hasegawa, M. Ishida, T. Nakajima, 
 Y. Honda, O. Kitao, H. Nakai, T. Vreven, J. A. Montgomery, Jr., 
 J. E. Peralta, F. Ogliaro, M. Bearpark, J. J. Heyd, E. Brothers, 
 K. N. Kudin, V. N. Staroverov, T. Keith, R. Kobayashi, J. Normand, 
 K. Raghavachari, A. Rendell, J. C. Burant, S. S. Iyengar, J. Tomasi, 
 M. Cossi, N. Rega, J. M. Millam, M. Klene, J. E. Knox, J. B. Cross, 
 V. Bakken, C. Adamo, J. Jaramillo, R. Gomperts, R. E. Stratmann, 
 O. Yazyev, A. J. Austin, R. Cammi, C. Pomelli, J. W. Ochterski, 
 R. L. Martin, K. Morokuma, V. G. Zakrzewski, G. A. Voth, 
 P. Salvador, J. J. Dannenberg, S. Dapprich, A. D. Daniels, 
 O. Farkas, J. B. Foresman, J. V. Ortiz, J. Cioslowski, 
 and D. J. Fox, Gaussian, Inc., Wallingford CT, 2013.
 
 ******************************************
 Gaussian 09:  ES64L-G09RevD.01 24-Apr-2013
                 7-Aug-2023 
 ******************************************
 %chk=./gau_temp_17/mol_chk.chk
 %mem=3500MB
 -------------------------------------------------------------------
 #p b3lyp/6-31g* pop=mk empiricaldispersion=gd3 int(ultrafine) force
 -------------------------------------------------------------------
 1/10=7,30=1,38=1/1,3;
 2/12=2,17=6,18=5,40=1/2;
 3/5=1,6=6,7=1,11=2,16=1,25=1,30=1,71=1,74=-5,75=-5,124=31/1,2,3;
 4//1;
 5/5=2,38=5/2;
 6/7=2,8=2,9=2,10=2,15=8,20=1,28=1/1,2;
 7/29=1/1,2,3,16;
 1/10=7,30=1/3;
 99//99;
 Leave Link    1 at Mon Aug  7 13:10:16 2023, MaxMem=   458752000 cpu:         0.0
 (Enter /opt/apps/apps/binapps/gaussian/g09d01_em64t/g09/l101.exe)
 -------
 aspirin
 -------
 Symbolic Z-matrix:
 Charge =  0 Multiplicity = 1
 C                     14.32598   12.96134   11.27317 
 C                     11.56053   13.60653   11.14179 
 C                     13.81419   13.79729   10.2226 
 C                     12.48956   14.28002   10.30295 
 C                     9.0168    11.44963   13.747 
 C                     13.36967   12.27679   12.16069 
 C                     12.0088   12.53275   11.97256 
 O                     14.98025   10.99721   13.31943 
 O                     9.25619   11.9451   11.40558 
 O                     13.05817   11.30095   14.30522 
 C                     13.84378   11.29366   13.24799 
 C                     9.76167   11.65584   12.45213 
 O                     11.06128   11.82875   12.71093 
 H                     12.24958   11.63108   13.81339 
 H                     15.31513   12.63604   11.3209 
 H                     10.47278   13.85717   10.96156 
 H                     14.50444   14.13599   9.47444 
 H                     12.08343   15.04252   9.58629 
 H                     9.17548   12.29515   14.39793 
 H                     7.94074   11.39332   13.52745 
 H                     9.39187   10.59044   14.30506 
 
 NAtoms=     21 NQM=       21 NQMF=       0 NMMI=      0 NMMIF=      0
                NMic=       0 NMicF=      0.
                    Isotopes and Nuclear Properties:
 (Nuclear quadrupole moments (NQMom) in fm**2, nuclear magnetic moments (NMagM)
  in nuclear magnetons)

  Atom         1           2           3           4           5           6           7           8           9          10
 IAtWgt=          12          12          12          12          12          12          12          16          16          16
 AtmWgt=  12.0000000  12.0000000  12.0000000  12.0000000  12.0000000  12.0000000  12.0000000  15.9949146  15.9949146  15.9949146
 NucSpn=           0           0           0           0           0           0           0           0           0           0
 AtZEff=   0.0000000   0.0000000   0.0000000   0.0000000   0.0000000   0.0000000   0.0000000   0.0000000   0.0000000   0.0000000
 NQMom=    0.0000000   0.0000000   0.0000000   0.0000000   0.0000000   0.0000000   0.0000000   0.0000000   0.0000000   0.0000000
 NMagM=    0.0000000   0.0000000   0.0000000   0.0000000   0.0000000   0.0000000   0.0000000   0.0000000   0.0000000   0.0000000
 AtZNuc=   6.0000000   6.0000000   6.0000000   6.0000000   6.0000000   6.0000000   6.0000000   8.0000000   8.0000000   8.0000000

  Atom        11          12          13          14          15          16          17          18          19          20
 IAtWgt=          12          12          16           1           1           1           1           1           1           1
 AtmWgt=  12.0000000  12.0000000  15.9949146   1.0078250   1.0078250   1.0078250   1.0078250   1.0078250   1.0078250   1.0078250
 NucSpn=           0           0           0           1           1           1           1           1           1           1
 AtZEff=   0.0000000   0.0000000   0.0000000   0.0000000   0.0000000   0.0000000   0.0000000   0.0000000   0.0000000   0.0000000
 NQMom=    0.0000000   0.0000000   0.0000000   0.0000000   0.0000000   0.0000000   0.0000000   0.0000000   0.0000000   0.0000000
 NMagM=    0.0000000   0.0000000   0.0000000   2.7928460   2.7928460   2.7928460   2.7928460   2.7928460   2.7928460   2.7928460
 AtZNuc=   6.0000000   6.0000000   8.0000000   1.0000000   1.0000000   1.0000000   1.0000000   1.0000000   1.0000000   1.0000000

  Atom        21
 IAtWgt=           1
 AtmWgt=   1.0078250
 NucSpn=           1
 AtZEff=   0.0000000
 NQMom=    0.0000000
 NMagM=    2.7928460
 AtZNuc=   1.0000000
 Leave Link  101 at Mon Aug  7 13:10:17 2023, MaxMem=   458752000 cpu:         0.1
 (Enter /opt/apps/apps/binapps/gaussian/g09d01_em64t/g09/l103.exe)

 GradGradGradGradGradGradGradGradGradGradGradGradGradGradGradGradGradGrad
 Berny optimization.
 Initialization pass.
 Trust Radius=3.00D-01 FncErr=1.00D-07 GrdErr=1.00D-07
 Number of steps in this run=      2 maximum allowed number of steps=      2.
 GradGradGradGradGradGradGradGradGradGradGradGradGradGradGradGradGradGrad

 Leave Link  103 at Mon Aug  7 13:10:17 2023, MaxMem=   458752000 cpu:         0.0
 (Enter /opt/apps/apps/binapps/gaussian/g09d01_em64t/g09/l202.exe)
                          Input orientation:                          
 ---------------------------------------------------------------------
 Center     Atomic      Atomic             Coordinates (Angstroms)
 Number     Number       Type             X           Y           Z
 ---------------------------------------------------------------------
      1          6           0       14.325984   12.961342   11.273172
      2          6           0       11.560529   13.606532   11.141794
      3          6           0       13.814193   13.797286   10.222596
      4          6           0       12.489562   14.280016   10.302955
      5          6           0        9.016802   11.449629   13.747004
      6          6           0       13.369669   12.276794   12.160692
      7          6           0       12.008799   12.532753   11.972559
      8          8           0       14.980248   10.997211   13.319426
      9          8           0        9.256191   11.945099   11.405579
     10          8           0       13.058165   11.300951   14.305218
     11          6           0       13.843782   11.293660   13.247987
     12          6           0        9.761674   11.655844   12.452132
     13          8           0       11.061277   11.828749   12.710934
     14          1           0       12.249581   11.631083   13.813391
     15          1           0       15.315135   12.636038   11.320904
     16          1           0       10.472777   13.857174   10.961565
     17          1           0       14.504443   14.135995    9.474437
     18          1           0       12.083426   15.042521    9.586289
     19          1           0        9.175476   12.295148   14.397925
     20          1           0        7.940738   11.393318   13.527451
     21          1           0        9.391873   10.590440   14.305061
 ---------------------------------------------------------------------
                    Distance matrix (angstroms):
                    1          2          3          4          5
     1  C    0.000000
     2  C    2.842757   0.000000
     3  C    1.436816   2.441375   0.000000
     4  C    2.460217   1.421384   1.412138   0.000000
     5  C    6.049176   4.232009   6.399055   5.650896   0.000000
     6  C    1.473376   2.465632   2.503141   2.870310   4.706170
     7  C    2.458083   1.429726   2.814402   2.464070   3.643331
     8  O    2.910847   4.821319   4.334796   5.106802   5.995848
     9  O    5.172338   2.853054   5.060181   4.137911   2.405217
    10  O    3.682060   4.191166   4.844695   5.021579   4.082441
    11  C    2.629368   3.872811   3.927086   4.407431   4.855211
    12  C    4.891543   2.959400   5.097010   4.352771   1.507997
    13  O    3.742757   2.423213   4.200655   3.721165   2.323156
    14  H    3.540304   3.393320   4.475964   4.404270   3.238547
    15  H    1.042363   3.882138   2.192625   3.423850   6.852920
    16  H    3.968226   1.130712   3.422678   2.163327   3.959142
    17  H    2.155715   3.424477   1.072806   2.183330   7.455575
    18  H    3.493701   2.180615   2.225096   1.122484   6.294807
    19  H    6.060992   4.243890   6.419306   5.629534   1.078785
    20  H    6.950672   4.867501   7.155320   6.278710   1.099677
    21  H    6.257713   4.879154   6.819626   6.263027   1.091014
                    6          7          8          9         10
     6  C    0.000000
     7  C    1.397453   0.000000
     8  O    2.360924   3.605752   0.000000
     9  O    4.195345   2.871177   6.109512   0.000000
    10  O    2.376614   2.838980   2.181387   4.824712   0.000000
    11  C    1.540631   2.555236   1.176665   4.986465   1.317188
    12  C    3.672621   2.459376   5.330996   1.197687   3.798254
    13  O    2.414991   1.392342   4.052166   2.230656   2.609191
    14  H    2.098321   2.063891   2.846461   3.854419   1.002343
    15  H    2.149218   3.371524   2.606145   6.098801   3.972719
    16  H    3.511053   2.266178   5.835769   2.309386   4.939487
    17  H    3.458368   3.878046   4.986211   6.006121   5.784950
    18  H    3.991393   3.463927   6.220323   4.571334   6.100636
    19  H    4.753609   3.737189   6.045096   3.013832   4.009027
    20  H    5.667614   4.501680   7.053714   2.556798   5.177019
    21  H    4.823377   4.007674   5.689190   3.203203   3.734505
                   11         12         13         14         15
    11  C    0.000000
    12  C    4.174706   0.000000
    13  O    2.883934   1.336355   0.000000
    14  H    1.724823   2.836075   1.632957   0.000000
    15  H    2.771372   5.751642   4.547439   4.076769   0.000000
    16  H    4.812796   2.751964   2.742468   4.030561   5.006868
    17  H    4.770222   6.124678   5.258677   5.494134   2.513272
    18  H    5.528186   5.007311   4.597447   5.434510   4.386798
    19  H    4.911051   2.130364   2.572881   3.198872   6.876021
    20  H    5.910496   2.130972   3.254853   4.324861   7.797110
    21  H    4.629408   2.169144   2.619459   3.080775   6.940799
                   16         17         18         19         20
    16  H    0.000000
    17  H    4.306231   0.000000
    18  H    2.427060   2.587591   0.000000
    19  H    3.991427   7.485142   6.257481   0.000000
    20  H    4.366415   8.187273   6.783163   1.759432   0.000000
    21  H    4.797799   7.876818   7.023695   1.720896   1.831689
                   21
    21  H    0.000000
 Stoichiometry    C9H8O4
 Framework group  C1[X(C9H8O4)]
 Deg. of freedom    57
 Full point group                 C1      NOp   1
 Largest Abelian subgroup         C1      NOp   1
 Largest concise Abelian subgroup C1      NOp   1
                         Standard orientation:                         
 ---------------------------------------------------------------------
 Center     Atomic      Atomic             Coordinates (Angstroms)
 Number     Number       Type             X           Y           Z
 ---------------------------------------------------------------------
      1          6           0        2.442289    0.560954   -0.076574
      2          6           0       -0.086985    1.774757    0.382468
      3          6           0        2.304048    1.991017   -0.060814
      4          6           0        1.093599    2.566307    0.384144
      5          6           0       -3.435385   -0.812607    0.321928
      6          6           0        1.223695   -0.266976   -0.056607
      7          6           0       -0.006690    0.387828    0.044684
      8          8           0        2.323393   -2.332864   -0.367627
      9          8           0       -2.648069    1.199202   -0.735346
     10          8           0        0.323798   -2.394516    0.502009
     11          6           0        1.292884   -1.802223   -0.165108
     12          6           0       -2.421023    0.097788   -0.323288
     13          8           0       -1.190137   -0.340472   -0.042767
     14          1           0       -0.300134   -1.610785    0.467868
     15          1           0        3.330546    0.070224   -0.314701
     16          1           0       -1.056508    2.348147    0.481257
     17          1           0        3.178514    2.578378   -0.263864
     18          1           0        0.977404    3.670840    0.546858
     19          1           0       -3.267870   -0.848879    1.387011
     20          1           0       -4.438546   -0.394261    0.154760
     21          1           0       -3.333866   -1.845525   -0.014354
 ---------------------------------------------------------------------
 Rotational constants (GHZ):      1.0604640      0.7080186      0.4425375
 Leave Link  202 at Mon Aug  7 13:10:17 2023, MaxMem=   458752000 cpu:         0.0
 (Enter /opt/apps/apps/binapps/gaussian/g09d01_em64t/g09/l301.exe)
 Standard basis: 6-31G(d) (6D, 7F)
 Ernie: Thresh=  0.10000D-02 Tol=  0.10000D-05 Strict=F.
 There are   211 symmetry adapted cartesian basis functions of A   symmetry.
 There are   211 symmetry adapted basis functions of A   symmetry.
   211 basis functions,   396 primitive gaussians,   211 cartesian basis functions
    47 alpha electrons       47 beta electrons
       nuclear repulsion energy       771.5619464867 Hartrees.
 IExCor=  402 DFT=T Ex+Corr=B3LYP ExCW=0 ScaHFX=  0.200000
 ScaDFX=  0.800000  0.720000  1.000000  0.810000 ScalE2=  1.000000  1.000000
 IRadAn=      5 IRanWt=     -1 IRanGd=            0 ICorTp=0 IEmpDi=131
 NAtoms=   21 NActive=   21 NUniq=   21 SFac= 1.00D+00 NAtFMM=   60 NAOKFM=F Big=F
 Integral buffers will be    131072 words long.
 Raffenetti 2 integral format.
 Two-electron integral symmetry is turned on.
 R6Disp:  Grimme-D3 Dispersion energy=       -0.0174364122 Hartrees.
 Nuclear repulsion after empirical dispersion term =      771.5445100744 Hartrees.
 Leave Link  301 at Mon Aug  7 13:10:17 2023, MaxMem=   458752000 cpu:         0.1
 (Enter /opt/apps/apps/binapps/gaussian/g09d01_em64t/g09/l302.exe)
 NPDir=0 NMtPBC=     1 NCelOv=     1 NCel=       1 NClECP=     1 NCelD=      1
         NCelK=      1 NCelE2=     1 NClLst=     1 CellRange=     0.0.
 One-electron integrals computed using PRISM.
 NBasis=   211 RedAO= T EigKep=  6.74D-04  NBF=   211
 NBsUse=   211 1.00D-06 EigRej= -1.00D+00 NBFU=   211
 Precomputing XC quadrature grid using
 IXCGrd= 4 IRadAn=           5 IRanWt=          -1 IRanGd=           0 AccXCQ= 0.00D+00.
 Generated NRdTot=       0 NPtTot=           0 NUsed=           0 NTot=          32
 NSgBfM=   210   210   210   210   210 MxSgAt=    21 MxSgA2=    21.
 Leave Link  302 at Mon Aug  7 13:10:17 2023, MaxMem=   458752000 cpu:         0.7
 (Enter /opt/apps/apps/binapps/gaussian/g09d01_em64t/g09/l303.exe)
 DipDrv:  MaxL=1.
 Leave Link  303 at Mon Aug  7 13:10:17 2023, MaxMem=   458752000 cpu:         0.1
 (Enter /opt/apps/apps/binapps/gaussian/g09d01_em64t/g09/l401.exe)
 ExpMin= 1.61D-01 ExpMax= 5.48D+03 ExpMxC= 8.25D+02 IAcc=3 IRadAn=         5 AccDes= 0.00D+00
 Harris functional with IExCor=  402 and IRadAn=       5 diagonalized for initial guess.
 HarFok:  IExCor=  402 AccDes= 0.00D+00 IRadAn=         5 IDoV= 1 UseB2=F ITyADJ=14
 ICtDFT=  3500011 ScaDFX=  1.000000  1.000000  1.000000  1.000000
 FoFCou: FMM=F IPFlag=           0 FMFlag=      100000 FMFlg1=           0
         NFxFlg=           0 DoJE=T BraDBF=F KetDBF=T FulRan=T
         wScrn=  0.000000 ICntrl=     500 IOpCl=  0 I1Cent=   200000004 NGrid=           0
         NMat0=    1 NMatS0=      1 NMatT0=    0 NMatD0=    1 NMtDS0=    0 NMtDT0=    0
 Petite list used in FoFCou.
 Harris En= -648.671798019704    
 JPrj=0 DoOrth=F DoCkMO=F.
 Leave Link  401 at Mon Aug  7 13:10:26 2023, MaxMem=   458752000 cpu:         8.2
 (Enter /opt/apps/apps/binapps/gaussian/g09d01_em64t/g09/l502.exe)
 Closed shell SCF:
 Using DIIS extrapolation, IDIIS=  1040.
 Integral symmetry usage will be decided dynamically.
 Keep R1 ints in memory in canonical form, NReq=255049085.
 IVT=      154966 IEndB=      154966 NGot=   458752000 MDV=   208466874
 LenX=   208466874 LenY=   208421912
 Requested convergence on RMS density matrix=1.00D-08 within 128 cycles.
 Requested convergence on MAX density matrix=1.00D-06.
 Requested convergence on             energy=1.00D-06.
 No special actions if energy rises.
 FoFCou: FMM=F IPFlag=           0 FMFlag=           0 FMFlg1=           0
         NFxFlg=           0 DoJE=F BraDBF=F KetDBF=F FulRan=T
         wScrn=  0.000000 ICntrl=     600 IOpCl=  0 I1Cent=           0 NGrid=           0
         NMat0=    1 NMatS0=  22366 NMatT0=    0 NMatD0=    1 NMtDS0=    0 NMtDT0=    0
 Symmetry not used in FoFCou.
 Integral accuracy reduced to 1.0D-05 until final iterations.

 Cycle   1  Pass 0  IDiag  1:
 E= -648.303137328372    
 DIIS: error= 2.43D-02 at cycle   1 NSaved=   1.
 NSaved= 1 IEnMin= 1 EnMin= -648.303137328372     IErMin= 1 ErrMin= 2.43D-02
 ErrMax= 2.43D-02  0.00D+00 EMaxC= 1.00D-01 BMatC= 4.05D-01 BMatP= 4.05D-01
 IDIUse=3 WtCom= 7.57D-01 WtEn= 2.43D-01
 Coeff-Com:  0.100D+01
 Coeff-En:   0.100D+01
 Coeff:      0.100D+01
 Gap=     0.229 Goal=   None    Shift=    0.000
 GapD=    0.229 DampG=1.000 DampE=0.500 DampFc=0.5000 IDamp=-1.
 Damping current iteration by 5.00D-01
 RMSDP=7.26D-03 MaxDP=2.15D-01              OVMax= 2.70D-01

 Cycle   2  Pass 0  IDiag  1:
 E= -648.351216970839     Delta-E=       -0.048079642467 Rises=F Damp=T
 DIIS: error= 1.37D-02 at cycle   2 NSaved=   2.
 NSaved= 2 IEnMin= 2 EnMin= -648.351216970839     IErMin= 2 ErrMin= 1.37D-02
 ErrMax= 1.37D-02  0.00D+00 EMaxC= 1.00D-01 BMatC= 9.81D-02 BMatP= 4.05D-01
 IDIUse=3 WtCom= 8.63D-01 WtEn= 1.37D-01
 Coeff-Com:  0.283D+00 0.717D+00
 Coeff-En:   0.436D+00 0.564D+00
 Coeff:      0.304D+00 0.696D+00
 Gap=     0.211 Goal=   None    Shift=    0.000
 RMSDP=2.46D-03 MaxDP=6.71D-02 DE=-4.81D-02 OVMax= 2.21D-01

 Cycle   3  Pass 0  IDiag  1:
 E= -648.588485990507     Delta-E=       -0.237269019668 Rises=F Damp=F
 DIIS: error= 1.13D-02 at cycle   3 NSaved=   3.
 NSaved= 3 IEnMin= 3 EnMin= -648.588485990507     IErMin= 3 ErrMin= 1.13D-02
 ErrMax= 1.13D-02  0.00D+00 EMaxC= 1.00D-01 BMatC= 6.65D-02 BMatP= 9.81D-02
 IDIUse=3 WtCom= 8.87D-01 WtEn= 1.13D-01
 Coeff-Com:  0.107D+00 0.441D+00 0.452D+00
 Coeff-En:   0.000D+00 0.000D+00 0.100D+01
 Coeff:      0.947D-01 0.392D+00 0.514D+00
 Gap=     0.210 Goal=   None    Shift=    0.000
 RMSDP=1.49D-03 MaxDP=4.41D-02 DE=-2.37D-01 OVMax= 7.64D-02

 Cycle   4  Pass 0  IDiag  1:
 E= -648.639943271657     Delta-E=       -0.051457281150 Rises=F Damp=F
 DIIS: error= 5.38D-03 at cycle   4 NSaved=   4.
 NSaved= 4 IEnMin= 4 EnMin= -648.639943271657     IErMin= 4 ErrMin= 5.38D-03
 ErrMax= 5.38D-03  0.00D+00 EMaxC= 1.00D-01 BMatC= 1.00D-02 BMatP= 6.65D-02
 IDIUse=3 WtCom= 9.46D-01 WtEn= 5.38D-02
 Coeff-Com:  0.235D-01 0.843D-01 0.291D+00 0.601D+00
 Coeff-En:   0.000D+00 0.000D+00 0.135D+00 0.865D+00
 Coeff:      0.222D-01 0.798D-01 0.282D+00 0.615D+00
 Gap=     0.203 Goal=   None    Shift=    0.000
 RMSDP=4.60D-04 MaxDP=1.57D-02 DE=-5.15D-02 OVMax= 2.41D-02

 Cycle   5  Pass 0  IDiag  1:
 E= -648.647459890067     Delta-E=       -0.007516618410 Rises=F Damp=F
 DIIS: error= 1.64D-03 at cycle   5 NSaved=   5.
 NSaved= 5 IEnMin= 5 EnMin= -648.647459890067     IErMin= 5 ErrMin= 1.64D-03
 ErrMax= 1.64D-03  0.00D+00 EMaxC= 1.00D-01 BMatC= 6.57D-04 BMatP= 1.00D-02
 IDIUse=3 WtCom= 9.84D-01 WtEn= 1.64D-02
 Coeff-Com:  0.386D-02 0.443D-02 0.109D+00 0.338D+00 0.545D+00
 Coeff-En:   0.000D+00 0.000D+00 0.000D+00 0.000D+00 0.100D+01
 Coeff:      0.380D-02 0.436D-02 0.107D+00 0.332D+00 0.552D+00
 Gap=     0.203 Goal=   None    Shift=    0.000
 RMSDP=1.29D-04 MaxDP=5.03D-03 DE=-7.52D-03 OVMax= 5.29D-03

 Cycle   6  Pass 0  IDiag  1:
 E= -648.647957260436     Delta-E=       -0.000497370369 Rises=F Damp=F
 DIIS: error= 3.34D-04 at cycle   6 NSaved=   6.
 NSaved= 6 IEnMin= 6 EnMin= -648.647957260436     IErMin= 6 ErrMin= 3.34D-04
 ErrMax= 3.34D-04  0.00D+00 EMaxC= 1.00D-01 BMatC= 4.37D-05 BMatP= 6.57D-04
 IDIUse=3 WtCom= 9.97D-01 WtEn= 3.34D-03
 Coeff-Com:  0.686D-03-0.303D-02 0.364D-01 0.124D+00 0.288D+00 0.554D+00
 Coeff-En:   0.000D+00 0.000D+00 0.000D+00 0.000D+00 0.000D+00 0.100D+01
 Coeff:      0.684D-03-0.302D-02 0.362D-01 0.124D+00 0.287D+00 0.555D+00
 Gap=     0.203 Goal=   None    Shift=    0.000
 RMSDP=3.46D-05 MaxDP=1.07D-03 DE=-4.97D-04 OVMax= 1.74D-03

 Cycle   7  Pass 0  IDiag  1:
 E= -648.647989777609     Delta-E=       -0.000032517172 Rises=F Damp=F
 DIIS: error= 7.60D-05 at cycle   7 NSaved=   7.
 NSaved= 7 IEnMin= 7 EnMin= -648.647989777609     IErMin= 7 ErrMin= 7.60D-05
 ErrMax= 7.60D-05  0.00D+00 EMaxC= 1.00D-01 BMatC= 3.72D-06 BMatP= 4.37D-05
 IDIUse=1 WtCom= 1.00D+00 WtEn= 0.00D+00
 Coeff-Com:  0.179D-03-0.217D-02 0.113D-01 0.399D-01 0.116D+00 0.300D+00
 Coeff-Com:  0.535D+00
 Coeff:      0.179D-03-0.217D-02 0.113D-01 0.399D-01 0.116D+00 0.300D+00
 Coeff:      0.535D+00
 Gap=     0.203 Goal=   None    Shift=    0.000
 RMSDP=1.10D-05 MaxDP=4.92D-04 DE=-3.25D-05 OVMax= 9.19D-04

 Cycle   8  Pass 0  IDiag  1:
 E= -648.647992931811     Delta-E=       -0.000003154202 Rises=F Damp=F
 DIIS: error= 3.93D-05 at cycle   8 NSaved=   8.
 NSaved= 8 IEnMin= 8 EnMin= -648.647992931811     IErMin= 8 ErrMin= 3.93D-05
 ErrMax= 3.93D-05  0.00D+00 EMaxC= 1.00D-01 BMatC= 4.75D-07 BMatP= 3.72D-06
 IDIUse=1 WtCom= 1.00D+00 WtEn= 0.00D+00
 Coeff-Com:  0.738D-04-0.999D-03 0.297D-02 0.101D-01 0.394D-01 0.117D+00
 Coeff-Com:  0.312D+00 0.519D+00
 Coeff:      0.738D-04-0.999D-03 0.297D-02 0.101D-01 0.394D-01 0.117D+00
 Coeff:      0.312D+00 0.519D+00
 Gap=     0.203 Goal=   None    Shift=    0.000
 RMSDP=4.32D-06 MaxDP=1.10D-04 DE=-3.15D-06 OVMax= 3.64D-04

 Initial convergence to 1.0D-05 achieved.  Increase integral accuracy.
 Cycle   9  Pass 1  IDiag  1:
 E= -648.647999170756     Delta-E=       -0.000006238945 Rises=F Damp=F
 DIIS: error= 9.36D-06 at cycle   1 NSaved=   1.
 NSaved= 1 IEnMin= 1 EnMin= -648.647999170756     IErMin= 1 ErrMin= 9.36D-06
 ErrMax= 9.36D-06  0.00D+00 EMaxC= 1.00D-01 BMatC= 5.00D-08 BMatP= 5.00D-08
 IDIUse=1 WtCom= 1.00D+00 WtEn= 0.00D+00
 Coeff-Com:  0.100D+01
 Coeff:      0.100D+01
 Gap=     0.203 Goal=   None    Shift=    0.000
 RMSDP=4.32D-06 MaxDP=1.10D-04 DE=-6.24D-06 OVMax= 2.77D-04

 Cycle  10  Pass 1  IDiag  1:
 E= -648.647999044974     Delta-E=        0.000000125781 Rises=F Damp=F
 DIIS: error= 1.91D-05 at cycle   2 NSaved=   2.
 NSaved= 2 IEnMin= 1 EnMin= -648.647999170756     IErMin= 1 ErrMin= 9.36D-06
 ErrMax= 1.91D-05  0.00D+00 EMaxC= 1.00D-01 BMatC= 1.68D-07 BMatP= 5.00D-08
 IDIUse=1 WtCom= 1.00D+00 WtEn= 0.00D+00
 Coeff-Com:  0.653D+00 0.347D+00
 Coeff:      0.653D+00 0.347D+00
 Gap=     0.203 Goal=   None    Shift=    0.000
 RMSDP=2.08D-06 MaxDP=5.85D-05 DE= 1.26D-07 OVMax= 1.97D-04

 Cycle  11  Pass 1  IDiag  1:
 E= -648.647999223810     Delta-E=       -0.000000178836 Rises=F Damp=F
 DIIS: error= 2.86D-06 at cycle   3 NSaved=   3.
 NSaved= 3 IEnMin= 3 EnMin= -648.647999223810     IErMin= 3 ErrMin= 2.86D-06
 ErrMax= 2.86D-06  0.00D+00 EMaxC= 1.00D-01 BMatC= 3.21D-09 BMatP= 5.00D-08
 IDIUse=1 WtCom= 1.00D+00 WtEn= 0.00D+00
 Coeff-Com:  0.277D+00 0.181D+00 0.541D+00
 Coeff:      0.277D+00 0.181D+00 0.541D+00
 Gap=     0.203 Goal=   None    Shift=    0.000
 RMSDP=3.46D-07 MaxDP=1.26D-05 DE=-1.79D-07 OVMax= 1.52D-05

 Cycle  12  Pass 1  IDiag  1:
 E= -648.647999226084     Delta-E=       -0.000000002274 Rises=F Damp=F
 DIIS: error= 1.01D-06 at cycle   4 NSaved=   4.
 NSaved= 4 IEnMin= 4 EnMin= -648.647999226084     IErMin= 4 ErrMin= 1.01D-06
 ErrMax= 1.01D-06  0.00D+00 EMaxC= 1.00D-01 BMatC= 6.34D-10 BMatP= 3.21D-09
 IDIUse=1 WtCom= 1.00D+00 WtEn= 0.00D+00
 Coeff-Com:  0.424D-01 0.473D-01 0.325D+00 0.585D+00
 Coeff:      0.424D-01 0.473D-01 0.325D+00 0.585D+00
 Gap=     0.203 Goal=   None    Shift=    0.000
 RMSDP=1.30D-07 MaxDP=4.63D-06 DE=-2.27D-09 OVMax= 6.70D-06

 Cycle  13  Pass 1  IDiag  1:
 E= -648.647999226513     Delta-E=       -0.000000000429 Rises=F Damp=F
 DIIS: error= 5.73D-07 at cycle   5 NSaved=   5.
 NSaved= 5 IEnMin= 5 EnMin= -648.647999226513     IErMin= 5 ErrMin= 5.73D-07
 ErrMax= 5.73D-07  0.00D+00 EMaxC= 1.00D-01 BMatC= 1.17D-10 BMatP= 6.34D-10
 IDIUse=1 WtCom= 1.00D+00 WtEn= 0.00D+00
 Coeff-Com: -0.680D-02 0.862D-02 0.137D+00 0.372D+00 0.489D+00
 Coeff:     -0.680D-02 0.862D-02 0.137D+00 0.372D+00 0.489D+00
 Gap=     0.203 Goal=   None    Shift=    0.000
 RMSDP=5.46D-08 MaxDP=1.52D-06 DE=-4.29D-10 OVMax= 3.83D-06

 Cycle  14  Pass 1  IDiag  1:
 E= -648.647999226602     Delta-E=       -0.000000000089 Rises=F Damp=F
 DIIS: error= 1.34D-07 at cycle   6 NSaved=   6.
 NSaved= 6 IEnMin= 6 EnMin= -648.647999226602     IErMin= 6 ErrMin= 1.34D-07
 ErrMax= 1.34D-07  0.00D+00 EMaxC= 1.00D-01 BMatC= 9.09D-12 BMatP= 1.17D-10
 IDIUse=1 WtCom= 1.00D+00 WtEn= 0.00D+00
 Coeff-Com: -0.768D-02 0.986D-03 0.492D-01 0.163D+00 0.284D+00 0.510D+00
 Coeff:     -0.768D-02 0.986D-03 0.492D-01 0.163D+00 0.284D+00 0.510D+00
 Gap=     0.203 Goal=   None    Shift=    0.000
 RMSDP=1.71D-08 MaxDP=5.25D-07 DE=-8.87D-11 OVMax= 1.15D-06

 Cycle  15  Pass 1  IDiag  1:
 E= -648.647999226620     Delta-E=       -0.000000000019 Rises=F Damp=F
 DIIS: error= 3.71D-08 at cycle   7 NSaved=   7.
 NSaved= 7 IEnMin= 7 EnMin= -648.647999226620     IErMin= 7 ErrMin= 3.71D-08
 ErrMax= 3.71D-08  0.00D+00 EMaxC= 1.00D-01 BMatC= 8.35D-13 BMatP= 9.09D-12
 IDIUse=1 WtCom= 1.00D+00 WtEn= 0.00D+00
 Coeff-Com: -0.343D-02-0.462D-03 0.101D-01 0.446D-01 0.941D-01 0.285D+00
 Coeff-Com:  0.570D+00
 Coeff:     -0.343D-02-0.462D-03 0.101D-01 0.446D-01 0.941D-01 0.285D+00
 Coeff:      0.570D+00
 Gap=     0.203 Goal=   None    Shift=    0.000
 RMSDP=4.72D-09 MaxDP=1.28D-07 DE=-1.86D-11 OVMax= 2.85D-07

 SCF Done:  E(RB3LYP) =  -648.647999227     A.U. after   15 cycles
            NFock= 15  Conv=0.47D-08     -V/T= 2.0091
 KE= 6.427797735237D+02 PE=-3.056886147918D+03 EE= 9.939138650928D+02
 Leave Link  502 at Mon Aug  7 13:12:44 2023, MaxMem=   458752000 cpu:       137.9
 (Enter /opt/apps/apps/binapps/gaussian/g09d01_em64t/g09/l601.exe)
 Copying SCF densities to generalized density rwf, IOpCl= 0 IROHF=0.

 **********************************************************************

            Population analysis using the SCF density.

 **********************************************************************

 Orbital symmetries:
       Occupied  (A) (A) (A) (A) (A) (A) (A) (A) (A) (A) (A) (A)
                 (A) (A) (A) (A) (A) (A) (A) (A) (A) (A) (A) (A)
                 (A) (A) (A) (A) (A) (A) (A) (A) (A) (A) (A) (A)
                 (A) (A) (A) (A) (A) (A) (A) (A) (A) (A) (A)
       Virtual   (A) (A) (A) (A) (A) (A) (A) (A) (A) (A) (A) (A)
                 (A) (A) (A) (A) (A) (A) (A) (A) (A) (A) (A) (A)
                 (A) (A) (A) (A) (A) (A) (A) (A) (A) (A) (A) (A)
                 (A) (A) (A) (A) (A) (A) (A) (A) (A) (A) (A) (A)
                 (A) (A) (A) (A) (A) (A) (A) (A) (A) (A) (A) (A)
                 (A) (A) (A) (A) (A) (A) (A) (A) (A) (A) (A) (A)
                 (A) (A) (A) (A) (A) (A) (A) (A) (A) (A) (A) (A)
                 (A) (A) (A) (A) (A) (A) (A) (A) (A) (A) (A) (A)
                 (A) (A) (A) (A) (A) (A) (A) (A) (A) (A) (A) (A)
                 (A) (A) (A) (A) (A) (A) (A) (A) (A) (A) (A) (A)
                 (A) (A) (A) (A) (A) (A) (A) (A) (A) (A) (A) (A)
                 (A) (A) (A) (A) (A) (A) (A) (A) (A) (A) (A) (A)
                 (A) (A) (A) (A) (A) (A) (A) (A) (A) (A) (A) (A)
                 (A) (A) (A) (A) (A) (A) (A) (A)
 The electronic state is 1-A.
 Alpha  occ. eigenvalues --  -19.24554 -19.18601 -19.16871 -19.12776 -10.35480
 Alpha  occ. eigenvalues --  -10.31597 -10.29024 -10.23303 -10.22514 -10.22390
 Alpha  occ. eigenvalues --  -10.22332 -10.21945 -10.21805  -1.16143  -1.11512
 Alpha  occ. eigenvalues --   -1.06280  -1.02731  -0.87161  -0.80584  -0.77046
 Alpha  occ. eigenvalues --   -0.75217  -0.68426  -0.64891  -0.60015  -0.59214
 Alpha  occ. eigenvalues --   -0.54632  -0.52362  -0.51895  -0.51172  -0.48961
 Alpha  occ. eigenvalues --   -0.47107  -0.45499  -0.45455  -0.44182  -0.43577
 Alpha  occ. eigenvalues --   -0.42367  -0.41801  -0.40491  -0.38772  -0.37927
 Alpha  occ. eigenvalues --   -0.35789  -0.35309  -0.31278  -0.30237  -0.27169
 Alpha  occ. eigenvalues --   -0.26706  -0.25839
 Alpha virt. eigenvalues --   -0.05505  -0.04604  -0.00984   0.02886   0.06943
 Alpha virt. eigenvalues --    0.08934   0.11293   0.12510   0.13898   0.14609
 Alpha virt. eigenvalues --    0.15211   0.16858   0.17386   0.18325   0.21644
 Alpha virt. eigenvalues --    0.22958   0.25897   0.28165   0.28985   0.29163
 Alpha virt. eigenvalues --    0.31104   0.33136   0.37010   0.38541   0.46009
 Alpha virt. eigenvalues --    0.47728   0.48273   0.50412   0.51159   0.52380
 Alpha virt. eigenvalues --    0.52838   0.53403   0.54047   0.55172   0.55823
 Alpha virt. eigenvalues --    0.57389   0.58366   0.58896   0.61191   0.61943
 Alpha virt. eigenvalues --    0.63028   0.64405   0.66172   0.67161   0.67856
 Alpha virt. eigenvalues --    0.70970   0.72767   0.73876   0.77881   0.78425
 Alpha virt. eigenvalues --    0.80006   0.81553   0.82692   0.84141   0.85099
 Alpha virt. eigenvalues --    0.85764   0.86787   0.88794   0.90128   0.92807
 Alpha virt. eigenvalues --    0.93969   0.94714   0.96138   0.97961   1.00776
 Alpha virt. eigenvalues --    1.01723   1.03185   1.04796   1.06045   1.07000
 Alpha virt. eigenvalues --    1.09178   1.11634   1.12662   1.16184   1.19074
 Alpha virt. eigenvalues --    1.20483   1.21835   1.24316   1.27833   1.31395
 Alpha virt. eigenvalues --    1.33499   1.38899   1.39591   1.40758   1.42392
 Alpha virt. eigenvalues --    1.46583   1.49140   1.50108   1.54784   1.55075
 Alpha virt. eigenvalues --    1.60319   1.61859   1.63866   1.66792   1.67241
 Alpha virt. eigenvalues --    1.70902   1.72605   1.73492   1.75124   1.78154
 Alpha virt. eigenvalues --    1.79275   1.80116   1.82181   1.84562   1.85861
 Alpha virt. eigenvalues --    1.86818   1.87605   1.90597   1.92092   1.92913
 Alpha virt. eigenvalues --    1.94155   1.97214   2.00283   2.01391   2.06765
 Alpha virt. eigenvalues --    2.07957   2.09252   2.15493   2.16680   2.17971
 Alpha virt. eigenvalues --    2.19589   2.21080   2.24665   2.26871   2.27598
 Alpha virt. eigenvalues --    2.32075   2.36562   2.40866   2.44861   2.47609
 Alpha virt. eigenvalues --    2.50652   2.51367   2.54387   2.56216   2.58125
 Alpha virt. eigenvalues --    2.62518   2.64787   2.66757   2.67632   2.72282
 Alpha virt. eigenvalues --    2.77248   2.79548   2.82400   2.88114   2.92353
 Alpha virt. eigenvalues --    2.96048   2.99623   3.06265   3.11975   3.27640
 Alpha virt. eigenvalues --    3.32031   3.96456   3.98914   4.01869   4.05582
 Alpha virt. eigenvalues --    4.09011   4.11021   4.17634   4.25216   4.31513
 Alpha virt. eigenvalues --    4.37911   4.43628   4.51033   4.69269
          Condensed to atoms (all electrons):
               1          2          3          4          5          6
     1  C    4.971728  -0.042861   0.489972  -0.016694   0.000002   0.491033
     2  C   -0.042861   5.041322  -0.034649   0.497872   0.000146  -0.042012
     3  C    0.489972  -0.034649   4.910436   0.517653   0.000000  -0.024158
     4  C   -0.016694   0.497872   0.517653   4.897633   0.000000  -0.034445
     5  C    0.000002   0.000146   0.000000   0.000000   5.267192  -0.000385
     6  C    0.491033  -0.042012  -0.024158  -0.034445  -0.000385   5.209066
     7  C   -0.033896   0.481667  -0.027924  -0.020077   0.004183   0.443039
     8  O   -0.001058  -0.000090   0.000490  -0.000004   0.000000  -0.088094
     9  O    0.000001  -0.002704  -0.000003   0.000222  -0.071899   0.000057
    10  O    0.003193  -0.000225  -0.000039  -0.000004   0.000004  -0.087211
    11  C   -0.031804   0.004601   0.004299  -0.000279  -0.000027   0.273065
    12  C    0.000054   0.000037   0.000006   0.000243   0.367267   0.000913
    13  O    0.002941  -0.054564  -0.000028   0.003189  -0.103903  -0.058185
    14  H   -0.000186   0.001107  -0.000022  -0.000044  -0.000072   0.003207
    15  H    0.360752   0.000112  -0.039729   0.003960   0.000000  -0.040382
    16  H    0.000503   0.348215   0.003518  -0.033317   0.000017   0.002385
    17  H   -0.041930   0.005143   0.363600  -0.042237   0.000000   0.004330
    18  H    0.003249  -0.035845  -0.037522   0.358108   0.000000   0.000520
    19  H    0.000000   0.000032   0.000000  -0.000003   0.366382  -0.000011
    20  H    0.000000   0.000003   0.000000   0.000000   0.360009   0.000004
    21  H    0.000000   0.000003   0.000000   0.000000   0.347086   0.000020
               7          8          9         10         11         12
     1  C   -0.033896  -0.001058   0.000001   0.003193  -0.031804   0.000054
     2  C    0.481667  -0.000090  -0.002704  -0.000225   0.004601   0.000037
     3  C   -0.027924   0.000490  -0.000003  -0.000039   0.004299   0.000006
     4  C   -0.020077  -0.000004   0.000222  -0.000004  -0.000279   0.000243
     5  C    0.004183   0.000000  -0.071899   0.000004  -0.000027   0.367267
     6  C    0.443039  -0.088094   0.000057  -0.087211   0.273065   0.000913
     7  C    4.761088   0.004248  -0.001536   0.003661  -0.035690  -0.011023
     8  O    0.004248   7.983720   0.000000  -0.082307   0.595494   0.000001
     9  O   -0.001536   0.000000   7.968516  -0.000008  -0.000003   0.592443
    10  O    0.003661  -0.082307  -0.000008   8.269576   0.265454  -0.000174
    11  C   -0.035690   0.595494  -0.000003   0.265454   4.430973   0.000123
    12  C   -0.011023   0.000001   0.592443  -0.000174   0.000123   4.300155
    13  O    0.166593  -0.000002  -0.077779  -0.030374   0.001414   0.219061
    14  H   -0.009216   0.003783   0.000360   0.208521  -0.032017  -0.000947
    15  H    0.006092   0.013028   0.000000   0.000291  -0.007203   0.000001
    16  H   -0.027393   0.000000   0.009671   0.000003  -0.000054   0.002270
    17  H    0.000433   0.000000   0.000000   0.000000  -0.000056   0.000000
    18  H    0.003326   0.000000  -0.000001   0.000000   0.000004  -0.000013
    19  H    0.000195   0.000000  -0.000594   0.000003  -0.000002  -0.023928
    20  H   -0.000073   0.000000   0.002910   0.000000   0.000000  -0.024929
    21  H   -0.000298   0.000000   0.002205   0.000150   0.000020  -0.014812
              13         14         15         16         17         18
     1  C    0.002941  -0.000186   0.360752   0.000503  -0.041930   0.003249
     2  C   -0.054564   0.001107   0.000112   0.348215   0.005143  -0.035845
     3  C   -0.000028  -0.000022  -0.039729   0.003518   0.363600  -0.037522
     4  C    0.003189  -0.000044   0.003960  -0.033317  -0.042237   0.358108
     5  C   -0.103903  -0.000072   0.000000   0.000017   0.000000   0.000000
     6  C   -0.058185   0.003207  -0.040382   0.002385   0.004330   0.000520
     7  C    0.166593  -0.009216   0.006092  -0.027393   0.000433   0.003326
     8  O   -0.000002   0.003783   0.013028   0.000000   0.000000   0.000000
     9  O   -0.077779   0.000360   0.000000   0.009671   0.000000  -0.000001
    10  O   -0.030374   0.208521   0.000291   0.000003   0.000000   0.000000
    11  C    0.001414  -0.032017  -0.007203  -0.000054  -0.000056   0.000004
    12  C    0.219061  -0.000947   0.000001   0.002270   0.000000  -0.000013
    13  O    8.422565   0.049331  -0.000032  -0.005374   0.000001  -0.000045
    14  H    0.049331   0.328798  -0.000113  -0.000051   0.000000   0.000001
    15  H   -0.000032  -0.000113   0.531420   0.000008  -0.004133  -0.000122
    16  H   -0.005374  -0.000051   0.000008   0.520034  -0.000143  -0.004648
    17  H    0.000001   0.000000  -0.004133  -0.000143   0.569162  -0.004027
    18  H   -0.000045   0.000001  -0.000122  -0.004648  -0.004027   0.564885
    19  H    0.000890   0.000162   0.000000  -0.000033   0.000000   0.000000
    20  H    0.003773   0.000017   0.000000   0.000014   0.000000   0.000000
    21  H    0.002720   0.000369   0.000000   0.000000   0.000000   0.000000
              19         20         21
     1  C    0.000000   0.000000   0.000000
     2  C    0.000032   0.000003   0.000003
     3  C    0.000000   0.000000   0.000000
     4  C   -0.000003   0.000000   0.000000
     5  C    0.366382   0.360009   0.347086
     6  C   -0.000011   0.000004   0.000020
     7  C    0.000195  -0.000073  -0.000298
     8  O    0.000000   0.000000   0.000000
     9  O   -0.000594   0.002910   0.002205
    10  O    0.000003   0.000000   0.000150
    11  C   -0.000002   0.000000   0.000020
    12  C   -0.023928  -0.024929  -0.014812
    13  O    0.000890   0.003773   0.002720
    14  H    0.000162   0.000017   0.000369
    15  H    0.000000   0.000000   0.000000
    16  H   -0.000033   0.000014   0.000000
    17  H    0.000000   0.000000   0.000000
    18  H    0.000000   0.000000   0.000000
    19  H    0.509058  -0.023543  -0.028329
    20  H   -0.023543   0.504945  -0.016270
    21  H   -0.028329  -0.016270   0.514434
 Mulliken charges:
               1
     1  C   -0.154998
     2  C   -0.167310
     3  C   -0.125899
     4  C   -0.131777
     5  C   -0.536002
     6  C   -0.052757
     7  C    0.292600
     8  O   -0.429211
     9  O   -0.421860
    10  O   -0.550516
    11  C    0.531686
    12  C    0.593251
    13  O   -0.542192
    14  H    0.447011
    15  H    0.176049
    16  H    0.184375
    17  H    0.149857
    18  H    0.152131
    19  H    0.199721
    20  H    0.193140
    21  H    0.192701
 Sum of Mulliken charges =   0.00000
 Mulliken charges with hydrogens summed into heavy atoms:
               1
     1  C    0.021050
     2  C    0.017065
     3  C    0.023958
     4  C    0.020354
     5  C    0.049560
     6  C   -0.052757
     7  C    0.292600
     8  O   -0.429211
     9  O   -0.421860
    10  O   -0.103505
    11  C    0.531686
    12  C    0.593251
    13  O   -0.542192
 Electronic spatial extent (au):  <R**2>=           2426.9805
 Charge=              0.0000 electrons
 Dipole moment (field-independent basis, Debye):
    X=             -2.5031    Y=              2.8376    Z=              1.1346  Tot=              3.9503
 Quadrupole moment (field-independent basis, Debye-Ang):
   XX=            -69.5620   YY=            -79.4316   ZZ=            -74.8968
   XY=             15.4748   XZ=             -3.5889   YZ=              2.3513
 Traceless Quadrupole moment (field-independent basis, Debye-Ang):
   XX=              5.0681   YY=             -4.8015   ZZ=             -0.2667
   XY=             15.4748   XZ=             -3.5889   YZ=              2.3513
 Octapole moment (field-independent basis, Debye-Ang**2):
  XXX=            -26.4593  YYY=             35.5856  ZZZ=             -2.4105  XYY=            -13.2441
  XXY=              1.4452  XXZ=              9.8579  XZZ=             -7.2045  YZZ=            -10.2812
  YYZ=              3.2531  XYZ=             -8.3232
 Hexadecapole moment (field-independent basis, Debye-Ang**3):
 XXXX=          -1680.8547 YYYY=          -1174.2572 ZZZZ=           -126.0430 XXXY=             95.0009
 XXXZ=            -32.0831 YYYX=             54.6168 YYYZ=             14.5615 ZZZX=             -1.3780
 ZZZY=             -7.2545 XXYY=           -527.7695 XXZZ=           -327.9175 YYZZ=           -225.2026
 XXYZ=             -6.4713 YYXZ=             -1.2481 ZZXY=             -9.3798
 N-N= 7.715445100744D+02 E-N=-3.056886149080D+03  KE= 6.427797735237D+02
 No NMR shielding tensors so no spin-rotation constants.
 Leave Link  601 at Mon Aug  7 13:12:44 2023, MaxMem=   458752000 cpu:         0.2
 (Enter /opt/apps/apps/binapps/gaussian/g09d01_em64t/g09/l602.exe)
 FitSet:  NAtFit=    21 NAtPot=    21 NAtFrz=     0 MDM=    25 TotChg=   0.00000
 Merz-Kollman atomic radii used.

 **********************************************************************

            Electrostatic Properties Using The SCF Density

 **********************************************************************

       Atomic Center    1 is at   2.442289  0.560954 -0.076574
       Atomic Center    2 is at  -0.086985  1.774757  0.382468
       Atomic Center    3 is at   2.304048  1.991017 -0.060814
       Atomic Center    4 is at   1.093599  2.566307  0.384144
       Atomic Center    5 is at  -3.435385 -0.812607  0.321928
       Atomic Center    6 is at   1.223695 -0.266976 -0.056607
       Atomic Center    7 is at  -0.006690  0.387828  0.044684
       Atomic Center    8 is at   2.323393 -2.332864 -0.367627
       Atomic Center    9 is at  -2.648069  1.199202 -0.735346
       Atomic Center   10 is at   0.323798 -2.394516  0.502009
       Atomic Center   11 is at   1.292884 -1.802223 -0.165108
       Atomic Center   12 is at  -2.421023  0.097788 -0.323288
       Atomic Center   13 is at  -1.190137 -0.340472 -0.042767
       Atomic Center   14 is at  -0.300134 -1.610785  0.467868
       Atomic Center   15 is at   3.330546  0.070224 -0.314701
       Atomic Center   16 is at  -1.056508  2.348147  0.481257
       Atomic Center   17 is at   3.178514  2.578378 -0.263864
       Atomic Center   18 is at   0.977404  3.670840  0.546858
       Atomic Center   19 is at  -3.267870 -0.848879  1.387011
       Atomic Center   20 is at  -4.438546 -0.394261  0.154760
       Atomic Center   21 is at  -3.333866 -1.845525 -0.014354
    1019 points will be used for fitting atomic charges
 Fitting point charges to electrostatic potential
 Charges from ESP fit, RMS=   0.00147 RRMS=   0.08122:
 ESP charges:
               1
     1  C    0.037861
     2  C   -0.321277
     3  C   -0.252174
     4  C   -0.012974
     5  C   -0.456441
     6  C   -0.254553
     7  C    0.364556
     8  O   -0.441206
     9  O   -0.480383
    10  O   -0.452866
    11  C    0.578128
    12  C    0.723688
    13  O   -0.384967
    14  H    0.325097
    15  H    0.113996
    16  H    0.203423
    17  H    0.163367
    18  H    0.120833
    19  H    0.162484
    20  H    0.132980
    21  H    0.130429
 Sum of ESP charges =   0.00000
 ESP charges with hydrogens summed into heavy atoms:
               1
     1  C    0.151857
     2  C   -0.117854
     3  C   -0.088807
     4  C    0.107859
     5  C   -0.030549
     6  C   -0.254553
     7  C    0.364556
     8  O   -0.441206
     9  O   -0.480383
    10  O   -0.127768
    11  C    0.578128
    12  C    0.723688
    13  O   -0.384967
 Charge=   0.00000 Dipole=    -2.4894     2.8299     1.0791 Tot=     3.9204
 -----------------------------------------------------------------

              Electrostatic Properties (Atomic Units)

 -----------------------------------------------------------------
    Center     Electric         -------- Electric Field --------
               Potential          X             Y             Z
 -----------------------------------------------------------------
    1 Atom    -14.703546
    2 Atom    -14.701903
    3 Atom    -14.708770
    4 Atom    -14.701380
    5 Atom    -14.705384
    6 Atom    -14.693681
    7 Atom    -14.634999
    8 Atom    -22.339802
    9 Atom    -22.299332
   10 Atom    -22.278648
   11 Atom    -14.612317
   12 Atom    -14.572839
   13 Atom    -22.213859
   14 Atom     -0.946755
   15 Atom     -1.089918
   16 Atom     -1.075097
   17 Atom     -1.088417
   18 Atom     -1.079040
   19 Atom     -1.069276
   20 Atom     -1.079727
   21 Atom     -1.072011
 -----------------------------------------------------------------
 Leave Link  602 at Mon Aug  7 13:12:44 2023, MaxMem=   458752000 cpu:         0.2
 (Enter /opt/apps/apps/binapps/gaussian/g09d01_em64t/g09/l701.exe)
 Compute integral first derivatives.
 ... and contract with generalized density number  0.
 R6Disp: Adding Grimme-D3 dispersion energy 1st derivatives to the gradient.
 Leave Link  701 at Mon Aug  7 13:12:45 2023, MaxMem=   458752000 cpu:         0.2
 (Enter /opt/apps/apps/binapps/gaussian/g09d01_em64t/g09/l702.exe)
 L702 exits ... SP integral derivatives will be done elsewhere.
 Leave Link  702 at Mon Aug  7 13:12:45 2023, MaxMem=   458752000 cpu:         0.1
 (Enter /opt/apps/apps/binapps/gaussian/g09d01_em64t/g09/l703.exe)
 Compute integral first derivatives, UseDBF=F ICtDFT=           0.
 Integral derivatives from FoFJK, PRISM(SPDF).
 Calling FoFJK, ICntrl=      2127 FMM=F ISym2X=0 I1Cent= 0 IOpClX= 0 NMat=1 NMatS=1 NMatT=0.
 FoFJK:  IHMeth= 1 ICntrl=    2127 DoSepK=F KAlg= 0 I1Cent=   0 FoldK=F
 IRaf=         0 NMat=   1 IRICut=       1 DoRegI=T DoRafI=F ISym2E= 0.
 FoFCou: FMM=F IPFlag=           0 FMFlag=      100000 FMFlg1=         800
         NFxFlg=           0 DoJE=F BraDBF=F KetDBF=F FulRan=T
         wScrn=  0.000000 ICntrl=    2127 IOpCl=  0 I1Cent=           0 NGrid=           0
         NMat0=    1 NMatS0=      1 NMatT0=    0 NMatD0=    1 NMtDS0=    0 NMtDT0=    0
 Symmetry not used in FoFCou.
 Leave Link  703 at Mon Aug  7 13:13:23 2023, MaxMem=   458752000 cpu:        38.5
 (Enter /opt/apps/apps/binapps/gaussian/g09d01_em64t/g09/l716.exe)
 Dipole        =-9.84792735D-01 1.11641647D+00 4.46384138D-01
 ***** Axes restored to original set *****
 -------------------------------------------------------------------
 Center     Atomic                   Forces (Hartrees/Bohr)
 Number     Number              X              Y              Z
 -------------------------------------------------------------------
      1        6          -0.083504631   -0.011376390   -0.006768613
      2        6          -0.001555108    0.006039757   -0.018243127
      3        6           0.008778300   -0.004154143    0.046033816
      4        6          -0.014027167   -0.018409024   -0.007051945
      5        6          -0.009143383   -0.015947217   -0.005178240
      6        6           0.012314277    0.002461985   -0.029690028
      7        6          -0.017925215    0.041438382   -0.036156088
      8        8           0.061269803   -0.037165981   -0.007197031
      9        8          -0.007365072   -0.010702667   -0.016532322
     10        8          -0.045940410   -0.005477610   -0.009753019
     11        6           0.005289071    0.066767176   -0.011000335
     12        6          -0.028161408    0.031080119    0.008740446
     13        8           0.041057748   -0.009038023    0.017699616
     14        1          -0.004696863   -0.013208954    0.046534461
     15        1           0.032187816   -0.006775076    0.002023770
     16        1           0.027839530   -0.009550588    0.014019678
     17        1           0.004740518    0.007819699   -0.005602031
     18        1           0.011448261   -0.014851145    0.013764863
     19        1           0.004382742    0.012172194    0.002927123
     20        1           0.006274339   -0.005914953    0.002195524
     21        1          -0.003263149   -0.005207542   -0.000766519
 -------------------------------------------------------------------
 Cartesian Forces:  Max     0.083504631 RMS     0.024206998
 Z-matrix is all fixed cartesians, so copy forces.
 Leave Link  716 at Mon Aug  7 13:13:23 2023, MaxMem=   458752000 cpu:         0.1
 (Enter /opt/apps/apps/binapps/gaussian/g09d01_em64t/g09/l103.exe)

 GradGradGradGradGradGradGradGradGradGradGradGradGradGradGradGradGradGrad
 Berny optimization.
 Search for a local minimum.
 Step number   1 out of a maximum of    2
 All quantities printed in internal units (Hartrees-Bohrs-Radians)
 Second derivative matrix not updated -- first step.
 ITU=  0
     Eigenvalues ---    0.00047   0.00085   0.00187   0.00204   0.00407
     Eigenvalues ---    0.00687   0.00973   0.01079   0.01535   0.02091
     Eigenvalues ---    0.02672   0.03362   0.03586   0.04122   0.05003
     Eigenvalues ---    0.05591   0.06066   0.06497   0.06934   0.07319
     Eigenvalues ---    0.07893   0.09256   0.10134   0.11240   0.12321
     Eigenvalues ---    0.12934   0.13339   0.13750   0.14356   0.17759
     Eigenvalues ---    0.20989   0.22148   0.24231   0.24636   0.28379
     Eigenvalues ---    0.31995   0.35971   0.39447   0.45083   0.47073
     Eigenvalues ---    0.58542   0.68058   0.79847   0.87632   0.90896
     Eigenvalues ---    0.94235   0.99435   1.06169   1.10946   1.18137
     Eigenvalues ---    1.30132   1.35972   1.40753   1.51211   1.61141
     Eigenvalues ---    2.45524   2.65832
 Quadratic step=6.130D+00 exceeds max=3.000D-01 adjusted using Lamda=-2.823D-01.
 Angle between NR and scaled steps=  73.66 degrees.
 Angle between quadratic step and forces=  31.40 degrees.
 Linear search not attempted -- first point.
 TrRot= -0.021537  0.005356  0.010571 -0.081127  0.000811  0.081019
 Variable       Old X    -DE/DX   Delta X   Delta X   Delta X     New X
                                 (Linear)    (Quad)   (Total)
    X1       27.07219  -0.08350   0.00000  -0.07232  -0.07400  26.99818
    Y1       24.49339  -0.01138   0.00000  -0.03947  -0.03844  24.45495
    Z1       21.30321  -0.00677   0.00000  -0.01266  -0.02232  21.28089
    X2       21.84623  -0.00156   0.00000  -0.00144  -0.00320  21.84303
    Y2       25.71262   0.00604   0.00000   0.00526   0.00687  25.71949
    Z2       21.05494  -0.01824   0.00000  -0.03220  -0.03760  21.01733
    X3       26.10504   0.00878   0.00000   0.00618   0.00313  26.10817
    Y3       26.07309  -0.00415   0.00000   0.00999   0.01124  26.08433
    Z3       19.31791   0.04603   0.00000   0.06271   0.05387  19.37178
    X4       23.60185  -0.01403   0.00000  -0.00801  -0.01090  23.59095
    Y4       26.98532  -0.01841   0.00000  -0.03689  -0.03537  26.94996
    Z4       19.46976  -0.00705   0.00000  -0.00944  -0.01618  19.45358
    X5       17.03929  -0.00914   0.00000  -0.01268  -0.01088  17.02841
    Y5       21.63666  -0.01595   0.00000  -0.01449  -0.01268  21.62398
    Z5       25.97807  -0.00518   0.00000   0.00345   0.00166  25.97974
    X6       25.26501   0.01231   0.00000  -0.00764  -0.00813  25.25688
    Y6       23.19978   0.00246   0.00000   0.00804   0.00915  23.20893
    Z6       22.98038  -0.02969   0.00000  -0.04977  -0.05810  22.92228
    X7       22.69334  -0.01793   0.00000  -0.01322  -0.01394  22.67940
    Y7       23.68347   0.04144   0.00000   0.04282   0.04423  23.72770
    Z7       22.62486  -0.03616   0.00000  -0.04437  -0.05058  22.57427
    X8       28.30857   0.06127   0.00000   0.06090   0.06193  28.37049
    Y8       20.78172  -0.03717   0.00000  -0.06423  -0.06360  20.71811
    Z8       25.17007  -0.00720   0.00000  -0.02031  -0.03132  25.13874
    X9       17.49167  -0.00737   0.00000  -0.01156  -0.01325  17.47841
    Y9       22.57297  -0.01070   0.00000  -0.03337  -0.03132  22.54164
    Z9       21.55342  -0.01653   0.00000  -0.02169  -0.02378  21.52964
   X10       24.67636  -0.04594   0.00000  -0.04811  -0.04550  24.63085
   Y10       21.35570  -0.00548   0.00000  -0.03940  -0.03848  21.31722
   Z10       27.03295  -0.00975   0.00000  -0.01417  -0.02212  27.01083
   X11       26.16096   0.00529   0.00000   0.06812   0.06916  26.23011
   Y11       21.34193   0.06677   0.00000   0.13400   0.13486  21.47679
   Z11       25.03507  -0.01100   0.00000   0.02562   0.01639  25.05145
   X12       18.44689  -0.02816   0.00000  -0.01633  -0.01644  18.43045
   Y12       22.02635   0.03108   0.00000   0.07297   0.07478  22.10114
   Z12       23.53112   0.00874   0.00000   0.02024   0.01735  23.54847
   X13       20.90278   0.04106   0.00000   0.03974   0.04005  20.94284
   Y13       22.35310  -0.00904   0.00000   0.00874   0.01025  22.36334
   Z13       24.02018   0.01770   0.00000   0.01547   0.01057  24.03076
   X14       23.14835  -0.00470   0.00000  -0.06358  -0.06155  23.08680
   Y14       21.97956  -0.01321   0.00000  -0.02263  -0.02150  21.95807
   Z14       26.10353   0.04653   0.00000   0.11142   0.10476  26.20829
   X15       28.94141   0.03219   0.00000   0.01297   0.01131  28.95272
   Y15       23.87865  -0.00678   0.00000  -0.00438  -0.00356  23.87509
   Z15       21.39341   0.00202   0.00000   0.01063  -0.00065  21.39276
   X16       19.79068   0.02784   0.00000   0.04338   0.04144  19.83212
   Y16       26.18626  -0.00955   0.00000  -0.01423  -0.01238  26.17388
   Z16       20.71436   0.01402   0.00000   0.03046   0.02670  20.74106
   X17       27.40943   0.00474   0.00000   0.00652   0.00236  27.41179
   Y17       26.71316   0.00782   0.00000   0.01744   0.01865  26.73180
   Z17       17.90409  -0.00560   0.00000   0.02430   0.01445  17.91854
   X18       22.83436   0.01145   0.00000   0.02853   0.02472  22.85909
   Y18       28.42624  -0.01485   0.00000  -0.03313  -0.03144  28.39480
   Z18       18.11546   0.01376   0.00000   0.02481   0.01875  18.13421
   X19       17.33914   0.00438   0.00000   0.00189   0.00486  17.34400
   Y19       23.23446   0.01217   0.00000   0.01313   0.01482  23.24929
   Z19       27.20814   0.00293   0.00000   0.00241   0.00048  27.20862
   X20       15.00582   0.00627   0.00000   0.00324   0.00470  15.01052
   Y20       21.53025  -0.00591   0.00000  -0.02160  -0.01955  21.51070
   Z20       25.56318   0.00220   0.00000   0.00440   0.00424  25.56742
   X21       17.74807  -0.00326   0.00000  -0.00833  -0.00585  17.74221
   Y21       20.01303  -0.00521   0.00000  -0.01819  -0.01653  19.99650
   Z21       27.03265  -0.00077   0.00000  -0.00413  -0.00659  27.02605
         Item               Value     Threshold  Converged?
 Maximum Force            0.083505     0.000450     NO 
 RMS     Force            0.024207     0.000300     NO 
 Maximum Displacement     0.134865     0.001800     NO 
 RMS     Displacement     0.037679     0.001200     NO 
 Predicted change in Energy=-3.746556D-02
 GradGradGradGradGradGradGradGradGradGradGradGradGradGradGradGradGradGrad

 Leave Link  103 at Mon Aug  7 13:13:23 2023, MaxMem=   458752000 cpu:         0.0
 (Enter /opt/apps/apps/binapps/gaussian/g09d01_em64t/g09/l9999.exe)
 1\1\GINC-NODE611\Force\RB3LYP\6-31G(d)\C9H8O4\MBDX6CW3\07-Aug-2023\0\\
 #p b3lyp/6-31g* pop=mk empiricaldispersion=gd3 int(ultrafine) force\\a
 spirin\\0,1\C,14.32598352,12.96134233,11.2731719\C,11.56052947,13.6065
 3162,11.14179373\C,13.81419301,13.79728556,10.22259593\C,12.48956203,1
 4.28001642,10.30295491\C,9.01680231,11.44962907,13.74700427\C,13.36966
 872,12.27679372,12.16069221\C,12.00879931,12.53275275,11.9725585\O,14.
 98024821,10.99721074,13.31942558\O,9.25619066,11.94509864,11.40557885\
 O,13.05816531,11.30095124,14.30521846\C,13.84378195,11.2936604,13.2479
 8703\C,9.76167381,11.65584445,12.45213151\O,11.06127739,11.82874918,12
 .71093369\H,12.24958062,11.63108349,13.81339073\H,15.31513453,12.63603
 806,11.32090449\H,10.47277689,13.85717392,10.96156478\H,14.50444341,14
 .13599491,9.47443664\H,12.08342552,15.04252076,9.58628893\H,9.17547584
 ,12.29514837,14.39792514\H,7.94073761,11.39331818,13.52745056\H,9.3918
 7288,10.59044003,14.3050611\\Version=ES64L-G09RevD.01\State=1-A\HF=-64
 8.6479992\RMSD=4.724e-09\RMSF=2.421e-02\Dipole=-1.250192,0.8433099,-0.
 3759118\Quadrupole=-2.5446923,1.9892886,0.5554038,4.8409528,-11.140708
 3,-1.7641781\PG=C01 [X(C9H8O4)]\\@


 YE HAVE SOWN MUCH, AND BRING IN LITTLE.
 YE EAT, BUT YE HAVE NOT ENOUGH.
 YE DRINK, BUT YE ARE NOT FILLED WITH DRINK.
 YE CLOTHE YOU, BUT THERE IS NONE WARM.
 AND HE THAT EARNETH WAGES EARNETH WAGES TO PUT
 IT INTO A BAG WITH HOLES.
                                     HAGGAI I,6
 Job cpu time:       0 days  0 hours  3 minutes  6.8 seconds.
 File lengths (MBytes):  RWF=     20 Int=      0 D2E=      0 Chk=      3 Scr=      1
 Normal termination of Gaussian 09 at Mon Aug  7 13:13:23 2023.
