 Entering Gaussian System, Link 0=/opt/apps/apps/binapps/gaussian/g09d01_em64t/g09/g09
 Initial command:
 /opt/apps/apps/binapps/gaussian/g09d01_em64t/g09/l1.exe "/net/scratch2/mbdx6cw3/aspirin/300K-meta/dft/qm_input/gau_temp_4/Gau-12297.inp" -scrdir="/net/scratch2/mbdx6cw3/aspirin/300K-meta/dft/qm_input/gau_temp_4/"
 Entering Link 1 = /opt/apps/apps/binapps/gaussian/g09d01_em64t/g09/l1.exe PID=     12298.
  
 Copyright (c) 1988,1990,1992,1993,1995,1998,2003,2009,2013,
            Gaussian, Inc.  All Rights Reserved.
  
 This is part of the Gaussian(R) 09 program.  It is based on
 the Gaussian(R) 03 system (copyright 2003, Gaussian, Inc.),
 the Gaussian(R) 98 system (copyright 1998, Gaussian, Inc.),
 the Gaussian(R) 94 system (copyright 1995, Gaussian, Inc.),
 the Gaussian 92(TM) system (copyright 1992, Gaussian, Inc.),
 the Gaussian 90(TM) system (copyright 1990, Gaussian, Inc.),
 the Gaussian 88(TM) system (copyright 1988, Gaussian, Inc.),
 the Gaussian 86(TM) system (copyright 1986, Carnegie Mellon
 University), and the Gaussian 82(TM) system (copyright 1983,
 Carnegie Mellon University). Gaussian is a federally registered
 trademark of Gaussian, Inc.
  
 This software contains proprietary and confidential information,
 including trade secrets, belonging to Gaussian, Inc.
  
 This software is provided under written license and may be
 used, copied, transmitted, or stored only in accord with that
 written license.
  
 The following legend is applicable only to US Government
 contracts under FAR:
  
                    RESTRICTED RIGHTS LEGEND
  
 Use, reproduction and disclosure by the US Government is
 subject to restrictions as set forth in subparagraphs (a)
 and (c) of the Commercial Computer Software - Restricted
 Rights clause in FAR 52.227-19.
  
 Gaussian, Inc.
 340 Quinnipiac St., Bldg. 40, Wallingford CT 06492
  
  
 ---------------------------------------------------------------
 Warning -- This program may not be used in any manner that
 competes with the business of Gaussian, Inc. or will provide
 assistance to any competitor of Gaussian, Inc.  The licensee
 of this program is prohibited from giving any competitor of
 Gaussian, Inc. access to this program.  By using this program,
 the user acknowledges that Gaussian, Inc. is engaged in the
 business of creating and licensing software in the field of
 computational chemistry and represents and warrants to the
 licensee that it is not a competitor of Gaussian, Inc. and that
 it will not use this program in any manner prohibited above.
 ---------------------------------------------------------------
  

 Cite this work as:
 Gaussian 09, Revision D.01,
 M. J. Frisch, G. W. Trucks, H. B. Schlegel, G. E. Scuseria, 
 M. A. Robb, J. R. Cheeseman, G. Scalmani, V. Barone, B. Mennucci, 
 G. A. Petersson, H. Nakatsuji, M. Caricato, X. Li, H. P. Hratchian, 
 A. F. Izmaylov, J. Bloino, G. Zheng, J. L. Sonnenberg, M. Hada, 
 M. Ehara, K. Toyota, R. Fukuda, J. Hasegawa, M. Ishida, T. Nakajima, 
 Y. Honda, O. Kitao, H. Nakai, T. Vreven, J. A. Montgomery, Jr., 
 J. E. Peralta, F. Ogliaro, M. Bearpark, J. J. Heyd, E. Brothers, 
 K. N. Kudin, V. N. Staroverov, T. Keith, R. Kobayashi, J. Normand, 
 K. Raghavachari, A. Rendell, J. C. Burant, S. S. Iyengar, J. Tomasi, 
 M. Cossi, N. Rega, J. M. Millam, M. Klene, J. E. Knox, J. B. Cross, 
 V. Bakken, C. Adamo, J. Jaramillo, R. Gomperts, R. E. Stratmann, 
 O. Yazyev, A. J. Austin, R. Cammi, C. Pomelli, J. W. Ochterski, 
 R. L. Martin, K. Morokuma, V. G. Zakrzewski, G. A. Voth, 
 P. Salvador, J. J. Dannenberg, S. Dapprich, A. D. Daniels, 
 O. Farkas, J. B. Foresman, J. V. Ortiz, J. Cioslowski, 
 and D. J. Fox, Gaussian, Inc., Wallingford CT, 2013.
 
 ******************************************
 Gaussian 09:  ES64L-G09RevD.01 24-Apr-2013
                 7-Aug-2023 
 ******************************************
 %chk=./gau_temp_4/mol_chk.chk
 %mem=3500MB
 -------------------------------------------------------------------
 #p b3lyp/6-31g* pop=mk empiricaldispersion=gd3 int(ultrafine) force
 -------------------------------------------------------------------
 1/10=7,30=1,38=1/1,3;
 2/12=2,17=6,18=5,40=1/2;
 3/5=1,6=6,7=1,11=2,16=1,25=1,30=1,71=1,74=-5,75=-5,124=31/1,2,3;
 4//1;
 5/5=2,38=5/2;
 6/7=2,8=2,9=2,10=2,15=8,20=1,28=1/1,2;
 7/29=1/1,2,3,16;
 1/10=7,30=1/3;
 99//99;
 Leave Link    1 at Mon Aug  7 12:51:53 2023, MaxMem=   458752000 cpu:         0.1
 (Enter /opt/apps/apps/binapps/gaussian/g09d01_em64t/g09/l101.exe)
 -------
 aspirin
 -------
 Symbolic Z-matrix:
 Charge =  0 Multiplicity = 1
 C                     14.00701   11.50743   13.62612 
 C                     11.89466   13.37158   13.83567 
 C                     13.86655   12.19339   14.83028 
 C                     12.80066   13.11056   14.87737 
 C                     9.56553   13.14264   10.06195 
 C                     13.10001   11.68705   12.53963 
 C                     12.08558   12.63669   12.62659 
 O                     13.93235   9.74253   11.31791 
 O                     9.48297   13.79679   12.33001 
 O                     12.98001   11.25373   10.11912 
 C                     13.38393   10.8202   11.28176 
 C                     10.17206   13.42329   11.37961 
 O                     11.29483   12.75955   11.48526 
 H                     12.29871   11.88802   10.39906 
 H                     14.7881   10.75781   13.48886 
 H                     11.11053   14.1088   13.95216 
 H                     14.51595   11.95208   15.67237 
 H                     12.67974   13.56717   15.8544 
 H                     9.11532   12.13382   10.19514 
 H                     8.77067   13.90014   9.87862 
 H                     10.26287   13.14184   9.21543 
 
 NAtoms=     21 NQM=       21 NQMF=       0 NMMI=      0 NMMIF=      0
                NMic=       0 NMicF=      0.
                    Isotopes and Nuclear Properties:
 (Nuclear quadrupole moments (NQMom) in fm**2, nuclear magnetic moments (NMagM)
  in nuclear magnetons)

  Atom         1           2           3           4           5           6           7           8           9          10
 IAtWgt=          12          12          12          12          12          12          12          16          16          16
 AtmWgt=  12.0000000  12.0000000  12.0000000  12.0000000  12.0000000  12.0000000  12.0000000  15.9949146  15.9949146  15.9949146
 NucSpn=           0           0           0           0           0           0           0           0           0           0
 AtZEff=   0.0000000   0.0000000   0.0000000   0.0000000   0.0000000   0.0000000   0.0000000   0.0000000   0.0000000   0.0000000
 NQMom=    0.0000000   0.0000000   0.0000000   0.0000000   0.0000000   0.0000000   0.0000000   0.0000000   0.0000000   0.0000000
 NMagM=    0.0000000   0.0000000   0.0000000   0.0000000   0.0000000   0.0000000   0.0000000   0.0000000   0.0000000   0.0000000
 AtZNuc=   6.0000000   6.0000000   6.0000000   6.0000000   6.0000000   6.0000000   6.0000000   8.0000000   8.0000000   8.0000000

  Atom        11          12          13          14          15          16          17          18          19          20
 IAtWgt=          12          12          16           1           1           1           1           1           1           1
 AtmWgt=  12.0000000  12.0000000  15.9949146   1.0078250   1.0078250   1.0078250   1.0078250   1.0078250   1.0078250   1.0078250
 NucSpn=           0           0           0           1           1           1           1           1           1           1
 AtZEff=   0.0000000   0.0000000   0.0000000   0.0000000   0.0000000   0.0000000   0.0000000   0.0000000   0.0000000   0.0000000
 NQMom=    0.0000000   0.0000000   0.0000000   0.0000000   0.0000000   0.0000000   0.0000000   0.0000000   0.0000000   0.0000000
 NMagM=    0.0000000   0.0000000   0.0000000   2.7928460   2.7928460   2.7928460   2.7928460   2.7928460   2.7928460   2.7928460
 AtZNuc=   6.0000000   6.0000000   8.0000000   1.0000000   1.0000000   1.0000000   1.0000000   1.0000000   1.0000000   1.0000000

  Atom        21
 IAtWgt=           1
 AtmWgt=   1.0078250
 NucSpn=           1
 AtZEff=   0.0000000
 NQMom=    0.0000000
 NMagM=    2.7928460
 AtZNuc=   1.0000000
 Leave Link  101 at Mon Aug  7 12:51:53 2023, MaxMem=   458752000 cpu:         0.2
 (Enter /opt/apps/apps/binapps/gaussian/g09d01_em64t/g09/l103.exe)

 GradGradGradGradGradGradGradGradGradGradGradGradGradGradGradGradGradGrad
 Berny optimization.
 Initialization pass.
 Trust Radius=3.00D-01 FncErr=1.00D-07 GrdErr=1.00D-07
 Number of steps in this run=      2 maximum allowed number of steps=      2.
 GradGradGradGradGradGradGradGradGradGradGradGradGradGradGradGradGradGrad

 Leave Link  103 at Mon Aug  7 12:51:53 2023, MaxMem=   458752000 cpu:         0.0
 (Enter /opt/apps/apps/binapps/gaussian/g09d01_em64t/g09/l202.exe)
                          Input orientation:                          
 ---------------------------------------------------------------------
 Center     Atomic      Atomic             Coordinates (Angstroms)
 Number     Number       Type             X           Y           Z
 ---------------------------------------------------------------------
      1          6           0       14.007007   11.507425   13.626118
      2          6           0       11.894655   13.371584   13.835669
      3          6           0       13.866553   12.193390   14.830277
      4          6           0       12.800657   13.110563   14.877374
      5          6           0        9.565529   13.142638   10.061949
      6          6           0       13.100005   11.687055   12.539635
      7          6           0       12.085582   12.636685   12.626587
      8          8           0       13.932350    9.742531   11.317910
      9          8           0        9.482968   13.796786   12.330012
     10          8           0       12.980007   11.253728   10.119115
     11          6           0       13.383932   10.820198   11.281765
     12          6           0       10.172063   13.423289   11.379611
     13          8           0       11.294833   12.759550   11.485262
     14          1           0       12.298713   11.888020   10.399064
     15          1           0       14.788101   10.757815   13.488855
     16          1           0       11.110530   14.108802   13.952158
     17          1           0       14.515948   11.952083   15.672375
     18          1           0       12.679740   13.567170   15.854398
     19          1           0        9.115320   12.133822   10.195142
     20          1           0        8.770667   13.900144    9.878618
     21          1           0       10.262870   13.141837    9.215428
 ---------------------------------------------------------------------
                    Distance matrix (angstroms):
                    1          2          3          4          5
     1  C    0.000000
     2  C    2.825072   0.000000
     3  C    1.392937   2.503152   0.000000
     4  C    2.364524   1.405034   1.406968   0.000000
     5  C    5.924858   4.440518   6.491289   5.801327   0.000000
     6  C    1.426662   2.443402   2.467998   2.753363   4.555236
     7  C    2.442573   1.427728   2.867860   2.408720   3.630981
     8  O    2.906587   4.864292   4.283429   5.029329   5.675147
     9  O    5.233353   2.874723   5.295094   4.238751   2.361956
    10  O    3.663080   4.413171   4.885077   5.110874   3.902552
    11  C    2.521209   3.905118   3.835430   4.302835   4.632697
    12  C    4.839847   3.000369   5.202788   4.386530   1.477458
    13  O    3.675182   2.501756   4.257159   3.727887   2.272239
    14  H    3.671103   3.764901   4.710310   4.669242   3.026220
    15  H    1.091267   3.914601   2.170147   3.378364   6.686279
    16  H    3.906794   1.082549   3.469231   2.170031   4.295838
    17  H    2.154973   3.501379   1.090446   2.217279   7.576341
    18  H    3.312011   2.174829   2.084375   1.085213   6.590220
    19  H    6.007709   4.744490   6.637939   6.038131   1.112716
    20  H    6.869360   5.069213   7.307530   6.469298   1.113207
    21  H    6.011992   4.905317   6.738889   6.204755   1.096761
                    6          7          8          9         10
     6  C    0.000000
     7  C    1.392269   0.000000
     8  O    2.442659   3.674142   0.000000
     9  O    4.192596   2.864854   6.103960   0.000000
    10  O    2.461927   2.999997   2.151228   4.856387   0.000000
    11  C    1.553799   2.606509   1.209725   5.017611   1.304936
    12  C    3.596249   2.415626   5.262276   1.231914   3.765687
    13  O    2.349594   1.393916   4.010848   2.252181   2.640770
    14  H    2.294450   2.359615   2.848890   3.911568   0.972039
    15  H    2.148063   3.402539   2.544821   6.222756   3.856200
    16  H    3.437745   2.207938   5.828057   2.318979   5.132115
    17  H    3.448071   3.956284   4.917731   6.317057   5.803922
    18  H    3.833942   3.411391   6.064373   4.763756   6.191579
    19  H    4.644778   3.871337   5.493874   2.730986   3.964360
    20  H    5.542738   4.487351   6.782350   2.554876   4.977941
    21  H    4.606092   3.900445   5.425938   3.276865   3.429933
                   11         12         13         14         15
    11  C    0.000000
    12  C    4.135427   0.000000
    13  O    2.857766   1.308558   0.000000
    14  H    1.759859   2.800208   1.716731   0.000000
    15  H    2.616645   5.732492   4.497138   4.125679   0.000000
    16  H    4.807731   2.822878   2.817805   4.355241   4.996828
    17  H    4.673338   6.281847   5.344109   5.720843   2.503618
    18  H    5.380587   5.131555   4.653984   5.720612   4.234791
    19  H    4.596455   2.045091   2.608873   3.199373   6.702416
    20  H    5.721634   2.108147   3.202136   4.094705   7.688794
    21  H    4.404632   2.184297   2.522546   2.667904   6.665093
                   16         17         18         19         20
    16  H    0.000000
    17  H    4.382632   0.000000
    18  H    2.524739   2.452203   0.000000
    19  H    4.690050   7.694147   6.840084   0.000000
    20  H    4.702363   8.388731   7.148543   1.827256   0.000000
    21  H    4.908173   7.822810   7.078001   1.814608   1.800422
                   21
    21  H    0.000000
 Stoichiometry    C9H8O4
 Framework group  C1[X(C9H8O4)]
 Deg. of freedom    57
 Full point group                 C1      NOp   1
 Largest Abelian subgroup         C1      NOp   1
 Largest concise Abelian subgroup C1      NOp   1
                         Standard orientation:                         
 ---------------------------------------------------------------------
 Center     Atomic      Atomic             Coordinates (Angstroms)
 Number     Number       Type             X           Y           Z
 ---------------------------------------------------------------------
      1          6           0       -2.432937   -0.293994   -0.012915
      2          6           0       -0.140456   -1.940940   -0.127511
      3          6           0       -2.626951   -1.673334   -0.020270
      4          6           0       -1.451482   -2.444122   -0.081238
      5          6           0        3.402366    0.730989    0.038051
      6          6           0       -1.131150    0.289712   -0.013786
      7          6           0       -0.002941   -0.519913   -0.114119
      8          8           0       -1.960194    2.521771    0.531355
      9          8           0        2.648187   -1.478572    0.395667
     10          8           0       -0.059618    2.457835   -0.474381
     11          6           0       -1.094995    1.842532    0.027867
     12          6           0        2.406349   -0.356560   -0.051789
     13          8           0        1.210661    0.164371   -0.158025
     14          1           0        0.592222    1.736869   -0.461255
     15          1           0       -3.275515    0.396325    0.053313
     16          1           0        0.709587   -2.608339   -0.190100
     17          1           0       -3.632442   -2.081493    0.086812
     18          1           0       -1.641647   -3.510088   -0.008849
     19          1           0        3.310864    1.077822    1.091365
     20          1           0        4.410173    0.292569   -0.138986
     21          1           0        3.247648    1.566864   -0.654958
 ---------------------------------------------------------------------
 Rotational constants (GHZ):      1.0525733      0.7230424      0.4386068
 Leave Link  202 at Mon Aug  7 12:51:53 2023, MaxMem=   458752000 cpu:         0.0
 (Enter /opt/apps/apps/binapps/gaussian/g09d01_em64t/g09/l301.exe)
 Standard basis: 6-31G(d) (6D, 7F)
 Ernie: Thresh=  0.10000D-02 Tol=  0.10000D-05 Strict=F.
 There are   211 symmetry adapted cartesian basis functions of A   symmetry.
 There are   211 symmetry adapted basis functions of A   symmetry.
   211 basis functions,   396 primitive gaussians,   211 cartesian basis functions
    47 alpha electrons       47 beta electrons
       nuclear repulsion energy       772.4543308927 Hartrees.
 IExCor=  402 DFT=T Ex+Corr=B3LYP ExCW=0 ScaHFX=  0.200000
 ScaDFX=  0.800000  0.720000  1.000000  0.810000 ScalE2=  1.000000  1.000000
 IRadAn=      5 IRanWt=     -1 IRanGd=            0 ICorTp=0 IEmpDi=131
 NAtoms=   21 NActive=   21 NUniq=   21 SFac= 1.00D+00 NAtFMM=   60 NAOKFM=F Big=F
 Integral buffers will be    131072 words long.
 Raffenetti 2 integral format.
 Two-electron integral symmetry is turned on.
 R6Disp:  Grimme-D3 Dispersion energy=       -0.0177434550 Hartrees.
 Nuclear repulsion after empirical dispersion term =      772.4365874377 Hartrees.
 Leave Link  301 at Mon Aug  7 12:51:53 2023, MaxMem=   458752000 cpu:         0.1
 (Enter /opt/apps/apps/binapps/gaussian/g09d01_em64t/g09/l302.exe)
 NPDir=0 NMtPBC=     1 NCelOv=     1 NCel=       1 NClECP=     1 NCelD=      1
         NCelK=      1 NCelE2=     1 NClLst=     1 CellRange=     0.0.
 One-electron integrals computed using PRISM.
 NBasis=   211 RedAO= T EigKep=  4.79D-04  NBF=   211
 NBsUse=   211 1.00D-06 EigRej= -1.00D+00 NBFU=   211
 Precomputing XC quadrature grid using
 IXCGrd= 4 IRadAn=           5 IRanWt=          -1 IRanGd=           0 AccXCQ= 0.00D+00.
 Generated NRdTot=       0 NPtTot=           0 NUsed=           0 NTot=          32
 NSgBfM=   210   210   210   210   210 MxSgAt=    21 MxSgA2=    21.
 Leave Link  302 at Mon Aug  7 12:51:54 2023, MaxMem=   458752000 cpu:         0.7
 (Enter /opt/apps/apps/binapps/gaussian/g09d01_em64t/g09/l303.exe)
 DipDrv:  MaxL=1.
 Leave Link  303 at Mon Aug  7 12:51:54 2023, MaxMem=   458752000 cpu:         0.1
 (Enter /opt/apps/apps/binapps/gaussian/g09d01_em64t/g09/l401.exe)
 ExpMin= 1.61D-01 ExpMax= 5.48D+03 ExpMxC= 8.25D+02 IAcc=3 IRadAn=         5 AccDes= 0.00D+00
 Harris functional with IExCor=  402 and IRadAn=       5 diagonalized for initial guess.
 HarFok:  IExCor=  402 AccDes= 0.00D+00 IRadAn=         5 IDoV= 1 UseB2=F ITyADJ=14
 ICtDFT=  3500011 ScaDFX=  1.000000  1.000000  1.000000  1.000000
 FoFCou: FMM=F IPFlag=           0 FMFlag=      100000 FMFlg1=           0
         NFxFlg=           0 DoJE=T BraDBF=F KetDBF=T FulRan=T
         wScrn=  0.000000 ICntrl=     500 IOpCl=  0 I1Cent=   200000004 NGrid=           0
         NMat0=    1 NMatS0=      1 NMatT0=    0 NMatD0=    1 NMtDS0=    0 NMtDT0=    0
 Petite list used in FoFCou.
 Harris En= -648.706106669168    
 JPrj=0 DoOrth=F DoCkMO=F.
 Leave Link  401 at Mon Aug  7 12:52:02 2023, MaxMem=   458752000 cpu:         8.3
 (Enter /opt/apps/apps/binapps/gaussian/g09d01_em64t/g09/l502.exe)
 Closed shell SCF:
 Using DIIS extrapolation, IDIIS=  1040.
 Integral symmetry usage will be decided dynamically.
 Keep R1 ints in memory in canonical form, NReq=255049085.
 IVT=      154966 IEndB=      154966 NGot=   458752000 MDV=   208466874
 LenX=   208466874 LenY=   208421912
 Requested convergence on RMS density matrix=1.00D-08 within 128 cycles.
 Requested convergence on MAX density matrix=1.00D-06.
 Requested convergence on             energy=1.00D-06.
 No special actions if energy rises.
 FoFCou: FMM=F IPFlag=           0 FMFlag=           0 FMFlg1=           0
         NFxFlg=           0 DoJE=F BraDBF=F KetDBF=F FulRan=T
         wScrn=  0.000000 ICntrl=     600 IOpCl=  0 I1Cent=           0 NGrid=           0
         NMat0=    1 NMatS0=  22366 NMatT0=    0 NMatD0=    1 NMtDS0=    0 NMtDT0=    0
 Symmetry not used in FoFCou.
 Integral accuracy reduced to 1.0D-05 until final iterations.

 Cycle   1  Pass 0  IDiag  1:
 E= -648.309835142983    
 DIIS: error= 2.37D-02 at cycle   1 NSaved=   1.
 NSaved= 1 IEnMin= 1 EnMin= -648.309835142983     IErMin= 1 ErrMin= 2.37D-02
 ErrMax= 2.37D-02  0.00D+00 EMaxC= 1.00D-01 BMatC= 4.24D-01 BMatP= 4.24D-01
 IDIUse=3 WtCom= 7.63D-01 WtEn= 2.37D-01
 Coeff-Com:  0.100D+01
 Coeff-En:   0.100D+01
 Coeff:      0.100D+01
 Gap=     0.249 Goal=   None    Shift=    0.000
 GapD=    0.249 DampG=1.000 DampE=0.500 DampFc=0.5000 IDamp=-1.
 Damping current iteration by 5.00D-01
 RMSDP=7.71D-03 MaxDP=2.30D-01              OVMax= 3.28D-01

 Cycle   2  Pass 0  IDiag  1:
 E= -648.338547609520     Delta-E=       -0.028712466537 Rises=F Damp=T
 DIIS: error= 1.79D-02 at cycle   2 NSaved=   2.
 NSaved= 2 IEnMin= 2 EnMin= -648.338547609520     IErMin= 2 ErrMin= 1.79D-02
 ErrMax= 1.79D-02  0.00D+00 EMaxC= 1.00D-01 BMatC= 1.20D-01 BMatP= 4.24D-01
 IDIUse=3 WtCom= 8.21D-01 WtEn= 1.79D-01
 Coeff-Com:  0.306D+00 0.694D+00
 Coeff-En:   0.467D+00 0.533D+00
 Coeff:      0.334D+00 0.666D+00
 Gap=     0.193 Goal=   None    Shift=    0.000
 RMSDP=2.66D-03 MaxDP=7.50D-02 DE=-2.87D-02 OVMax= 2.54D-01

 Cycle   3  Pass 0  IDiag  1:
 E= -648.610908182948     Delta-E=       -0.272360573428 Rises=F Damp=F
 DIIS: error= 1.30D-02 at cycle   3 NSaved=   3.
 NSaved= 3 IEnMin= 3 EnMin= -648.610908182948     IErMin= 3 ErrMin= 1.30D-02
 ErrMax= 1.30D-02  0.00D+00 EMaxC= 1.00D-01 BMatC= 7.17D-02 BMatP= 1.20D-01
 IDIUse=3 WtCom= 8.70D-01 WtEn= 1.30D-01
 Coeff-Com:  0.123D+00 0.423D+00 0.454D+00
 Coeff-En:   0.000D+00 0.000D+00 0.100D+01
 Coeff:      0.107D+00 0.368D+00 0.525D+00
 Gap=     0.219 Goal=   None    Shift=    0.000
 RMSDP=1.53D-03 MaxDP=4.59D-02 DE=-2.72D-01 OVMax= 8.46D-02

 Cycle   4  Pass 0  IDiag  1:
 E= -648.665486602227     Delta-E=       -0.054578419279 Rises=F Damp=F
 DIIS: error= 4.93D-03 at cycle   4 NSaved=   4.
 NSaved= 4 IEnMin= 4 EnMin= -648.665486602227     IErMin= 4 ErrMin= 4.93D-03
 ErrMax= 4.93D-03  0.00D+00 EMaxC= 1.00D-01 BMatC= 1.19D-02 BMatP= 7.17D-02
 IDIUse=3 WtCom= 9.51D-01 WtEn= 4.93D-02
 Coeff-Com:  0.289D-01 0.726D-01 0.296D+00 0.602D+00
 Coeff-En:   0.000D+00 0.000D+00 0.144D+00 0.856D+00
 Coeff:      0.274D-01 0.691D-01 0.289D+00 0.615D+00
 Gap=     0.207 Goal=   None    Shift=    0.000
 RMSDP=4.67D-04 MaxDP=1.60D-02 DE=-5.46D-02 OVMax= 2.40D-02

 Cycle   5  Pass 0  IDiag  1:
 E= -648.674219883699     Delta-E=       -0.008733281472 Rises=F Damp=F
 DIIS: error= 1.29D-03 at cycle   5 NSaved=   5.
 NSaved= 5 IEnMin= 5 EnMin= -648.674219883699     IErMin= 5 ErrMin= 1.29D-03
 ErrMax= 1.29D-03  0.00D+00 EMaxC= 1.00D-01 BMatC= 6.81D-04 BMatP= 1.19D-02
 IDIUse=3 WtCom= 9.87D-01 WtEn= 1.29D-02
 Coeff-Com:  0.564D-02 0.155D-02 0.115D+00 0.336D+00 0.541D+00
 Coeff-En:   0.000D+00 0.000D+00 0.000D+00 0.000D+00 0.100D+01
 Coeff:      0.556D-02 0.153D-02 0.114D+00 0.332D+00 0.547D+00
 Gap=     0.208 Goal=   None    Shift=    0.000
 RMSDP=1.36D-04 MaxDP=4.17D-03 DE=-8.73D-03 OVMax= 5.14D-03

 Cycle   6  Pass 0  IDiag  1:
 E= -648.674726607666     Delta-E=       -0.000506723967 Rises=F Damp=F
 DIIS: error= 3.31D-04 at cycle   6 NSaved=   6.
 NSaved= 6 IEnMin= 6 EnMin= -648.674726607666     IErMin= 6 ErrMin= 3.31D-04
 ErrMax= 3.31D-04  0.00D+00 EMaxC= 1.00D-01 BMatC= 6.70D-05 BMatP= 6.81D-04
 IDIUse=3 WtCom= 9.97D-01 WtEn= 3.31D-03
 Coeff-Com:  0.140D-02-0.412D-02 0.428D-01 0.136D+00 0.313D+00 0.511D+00
 Coeff-En:   0.000D+00 0.000D+00 0.000D+00 0.000D+00 0.243D-01 0.976D+00
 Coeff:      0.139D-02-0.410D-02 0.427D-01 0.136D+00 0.312D+00 0.513D+00
 Gap=     0.207 Goal=   None    Shift=    0.000
 RMSDP=4.20D-05 MaxDP=1.34D-03 DE=-5.07D-04 OVMax= 2.23D-03

 Cycle   7  Pass 0  IDiag  1:
 E= -648.674777310177     Delta-E=       -0.000050702510 Rises=F Damp=F
 DIIS: error= 1.44D-04 at cycle   7 NSaved=   7.
 NSaved= 7 IEnMin= 7 EnMin= -648.674777310177     IErMin= 7 ErrMin= 1.44D-04
 ErrMax= 1.44D-04  0.00D+00 EMaxC= 1.00D-01 BMatC= 8.15D-06 BMatP= 6.70D-05
 IDIUse=3 WtCom= 9.99D-01 WtEn= 1.44D-03
 Coeff-Com:  0.446D-03-0.286D-02 0.151D-01 0.487D-01 0.140D+00 0.314D+00
 Coeff-Com:  0.484D+00
 Coeff-En:   0.000D+00 0.000D+00 0.000D+00 0.000D+00 0.000D+00 0.496D-01
 Coeff-En:   0.950D+00
 Coeff:      0.445D-03-0.286D-02 0.151D-01 0.486D-01 0.140D+00 0.314D+00
 Coeff:      0.484D+00
 Gap=     0.207 Goal=   None    Shift=    0.000
 RMSDP=1.35D-05 MaxDP=3.89D-04 DE=-5.07D-05 OVMax= 8.21D-04

 Cycle   8  Pass 0  IDiag  1:
 E= -648.674783939203     Delta-E=       -0.000006629027 Rises=F Damp=F
 DIIS: error= 4.51D-05 at cycle   8 NSaved=   8.
 NSaved= 8 IEnMin= 8 EnMin= -648.674783939203     IErMin= 8 ErrMin= 4.51D-05
 ErrMax= 4.51D-05  0.00D+00 EMaxC= 1.00D-01 BMatC= 7.60D-07 BMatP= 8.15D-06
 IDIUse=1 WtCom= 1.00D+00 WtEn= 0.00D+00
 Coeff-Com:  0.176D-03-0.136D-02 0.433D-02 0.133D-01 0.500D-01 0.128D+00
 Coeff-Com:  0.279D+00 0.526D+00
 Coeff:      0.176D-03-0.136D-02 0.433D-02 0.133D-01 0.500D-01 0.128D+00
 Coeff:      0.279D+00 0.526D+00
 Gap=     0.207 Goal=   None    Shift=    0.000
 RMSDP=4.07D-06 MaxDP=1.43D-04 DE=-6.63D-06 OVMax= 2.45D-04

 Initial convergence to 1.0D-05 achieved.  Increase integral accuracy.
 Cycle   9  Pass 1  IDiag  1:
 E= -648.674794546379     Delta-E=       -0.000010607176 Rises=F Damp=F
 DIIS: error= 1.52D-05 at cycle   1 NSaved=   1.
 NSaved= 1 IEnMin= 1 EnMin= -648.674794546379     IErMin= 1 ErrMin= 1.52D-05
 ErrMax= 1.52D-05  0.00D+00 EMaxC= 1.00D-01 BMatC= 7.74D-08 BMatP= 7.74D-08
 IDIUse=1 WtCom= 1.00D+00 WtEn= 0.00D+00
 Coeff-Com:  0.100D+01
 Coeff:      0.100D+01
 Gap=     0.207 Goal=   None    Shift=    0.000
 RMSDP=4.07D-06 MaxDP=1.43D-04 DE=-1.06D-05 OVMax= 2.59D-04

 Cycle  10  Pass 1  IDiag  1:
 E= -648.674794372340     Delta-E=        0.000000174039 Rises=F Damp=F
 DIIS: error= 3.49D-05 at cycle   2 NSaved=   2.
 NSaved= 2 IEnMin= 1 EnMin= -648.674794546379     IErMin= 1 ErrMin= 1.52D-05
 ErrMax= 3.49D-05  0.00D+00 EMaxC= 1.00D-01 BMatC= 3.07D-07 BMatP= 7.74D-08
 IDIUse=1 WtCom= 1.00D+00 WtEn= 0.00D+00
 Coeff-Com:  0.670D+00 0.330D+00
 Coeff:      0.670D+00 0.330D+00
 Gap=     0.207 Goal=   None    Shift=    0.000
 RMSDP=2.28D-06 MaxDP=1.14D-04 DE= 1.74D-07 OVMax= 1.98D-04

 Cycle  11  Pass 1  IDiag  1:
 E= -648.674794610436     Delta-E=       -0.000000238095 Rises=F Damp=F
 DIIS: error= 2.62D-06 at cycle   3 NSaved=   3.
 NSaved= 3 IEnMin= 3 EnMin= -648.674794610436     IErMin= 3 ErrMin= 2.62D-06
 ErrMax= 2.62D-06  0.00D+00 EMaxC= 1.00D-01 BMatC= 2.60D-09 BMatP= 7.74D-08
 IDIUse=1 WtCom= 1.00D+00 WtEn= 0.00D+00
 Coeff-Com:  0.260D+00 0.151D+00 0.589D+00
 Coeff:      0.260D+00 0.151D+00 0.589D+00
 Gap=     0.207 Goal=   None    Shift=    0.000
 RMSDP=3.31D-07 MaxDP=1.17D-05 DE=-2.38D-07 OVMax= 1.59D-05

 Cycle  12  Pass 1  IDiag  1:
 E= -648.674794611949     Delta-E=       -0.000000001513 Rises=F Damp=F
 DIIS: error= 1.42D-06 at cycle   4 NSaved=   4.
 NSaved= 4 IEnMin= 4 EnMin= -648.674794611949     IErMin= 4 ErrMin= 1.42D-06
 ErrMax= 1.42D-06  0.00D+00 EMaxC= 1.00D-01 BMatC= 7.06D-10 BMatP= 2.60D-09
 IDIUse=1 WtCom= 1.00D+00 WtEn= 0.00D+00
 Coeff-Com:  0.361D-01 0.325D-01 0.359D+00 0.572D+00
 Coeff:      0.361D-01 0.325D-01 0.359D+00 0.572D+00
 Gap=     0.207 Goal=   None    Shift=    0.000
 RMSDP=1.58D-07 MaxDP=5.94D-06 DE=-1.51D-09 OVMax= 1.01D-05

 Cycle  13  Pass 1  IDiag  1:
 E= -648.674794612542     Delta-E=       -0.000000000593 Rises=F Damp=F
 DIIS: error= 5.81D-07 at cycle   5 NSaved=   5.
 NSaved= 5 IEnMin= 5 EnMin= -648.674794612542     IErMin= 5 ErrMin= 5.81D-07
 ErrMax= 5.81D-07  0.00D+00 EMaxC= 1.00D-01 BMatC= 1.04D-10 BMatP= 7.06D-10
 IDIUse=1 WtCom= 1.00D+00 WtEn= 0.00D+00
 Coeff-Com: -0.599D-02 0.402D-02 0.151D+00 0.356D+00 0.495D+00
 Coeff:     -0.599D-02 0.402D-02 0.151D+00 0.356D+00 0.495D+00
 Gap=     0.207 Goal=   None    Shift=    0.000
 RMSDP=6.06D-08 MaxDP=2.07D-06 DE=-5.93D-10 OVMax= 4.83D-06

 Cycle  14  Pass 1  IDiag  1:
 E= -648.674794612641     Delta-E=       -0.000000000099 Rises=F Damp=F
 DIIS: error= 1.45D-07 at cycle   6 NSaved=   6.
 NSaved= 6 IEnMin= 6 EnMin= -648.674794612641     IErMin= 6 ErrMin= 1.45D-07
 ErrMax= 1.45D-07  0.00D+00 EMaxC= 1.00D-01 BMatC= 9.74D-12 BMatP= 1.04D-10
 IDIUse=1 WtCom= 1.00D+00 WtEn= 0.00D+00
 Coeff-Com: -0.723D-02-0.564D-03 0.544D-01 0.159D+00 0.295D+00 0.499D+00
 Coeff:     -0.723D-02-0.564D-03 0.544D-01 0.159D+00 0.295D+00 0.499D+00
 Gap=     0.207 Goal=   None    Shift=    0.000
 RMSDP=1.56D-08 MaxDP=6.54D-07 DE=-9.87D-11 OVMax= 1.17D-06

 Cycle  15  Pass 1  IDiag  1:
 E= -648.674794612641     Delta-E=        0.000000000000 Rises=F Damp=F
 DIIS: error= 6.53D-08 at cycle   7 NSaved=   7.
 NSaved= 7 IEnMin= 6 EnMin= -648.674794612641     IErMin= 7 ErrMin= 6.53D-08
 ErrMax= 6.53D-08  0.00D+00 EMaxC= 1.00D-01 BMatC= 1.27D-12 BMatP= 9.74D-12
 IDIUse=1 WtCom= 1.00D+00 WtEn= 0.00D+00
 Coeff-Com: -0.403D-02-0.659D-03 0.191D-01 0.658D-01 0.139D+00 0.322D+00
 Coeff-Com:  0.459D+00
 Coeff:     -0.403D-02-0.659D-03 0.191D-01 0.658D-01 0.139D+00 0.322D+00
 Coeff:      0.459D+00
 Gap=     0.207 Goal=   None    Shift=    0.000
 RMSDP=5.37D-09 MaxDP=2.48D-07 DE= 0.00D+00 OVMax= 2.90D-07

 SCF Done:  E(RB3LYP) =  -648.674794613     A.U. after   15 cycles
            NFock= 15  Conv=0.54D-08     -V/T= 2.0090
 KE= 6.428653650929D+02 PE=-3.058711437023D+03 EE= 9.947346898795D+02
 Leave Link  502 at Mon Aug  7 12:54:14 2023, MaxMem=   458752000 cpu:       131.8
 (Enter /opt/apps/apps/binapps/gaussian/g09d01_em64t/g09/l601.exe)
 Copying SCF densities to generalized density rwf, IOpCl= 0 IROHF=0.

 **********************************************************************

            Population analysis using the SCF density.

 **********************************************************************

 Orbital symmetries:
       Occupied  (A) (A) (A) (A) (A) (A) (A) (A) (A) (A) (A) (A)
                 (A) (A) (A) (A) (A) (A) (A) (A) (A) (A) (A) (A)
                 (A) (A) (A) (A) (A) (A) (A) (A) (A) (A) (A) (A)
                 (A) (A) (A) (A) (A) (A) (A) (A) (A) (A) (A)
       Virtual   (A) (A) (A) (A) (A) (A) (A) (A) (A) (A) (A) (A)
                 (A) (A) (A) (A) (A) (A) (A) (A) (A) (A) (A) (A)
                 (A) (A) (A) (A) (A) (A) (A) (A) (A) (A) (A) (A)
                 (A) (A) (A) (A) (A) (A) (A) (A) (A) (A) (A) (A)
                 (A) (A) (A) (A) (A) (A) (A) (A) (A) (A) (A) (A)
                 (A) (A) (A) (A) (A) (A) (A) (A) (A) (A) (A) (A)
                 (A) (A) (A) (A) (A) (A) (A) (A) (A) (A) (A) (A)
                 (A) (A) (A) (A) (A) (A) (A) (A) (A) (A) (A) (A)
                 (A) (A) (A) (A) (A) (A) (A) (A) (A) (A) (A) (A)
                 (A) (A) (A) (A) (A) (A) (A) (A) (A) (A) (A) (A)
                 (A) (A) (A) (A) (A) (A) (A) (A) (A) (A) (A) (A)
                 (A) (A) (A) (A) (A) (A) (A) (A) (A) (A) (A) (A)
                 (A) (A) (A) (A) (A) (A) (A) (A) (A) (A) (A) (A)
                 (A) (A) (A) (A) (A) (A) (A) (A)
 The electronic state is 1-A.
 Alpha  occ. eigenvalues --  -19.25863 -19.18848 -19.16218 -19.12357 -10.35215
 Alpha  occ. eigenvalues --  -10.31977 -10.29486 -10.23150 -10.22329 -10.22137
 Alpha  occ. eigenvalues --  -10.21978 -10.21786 -10.21472  -1.17217  -1.11772
 Alpha  occ. eigenvalues --   -1.04566  -1.01052  -0.88303  -0.81456  -0.77527
 Alpha  occ. eigenvalues --   -0.75822  -0.69031  -0.64880  -0.61218  -0.59746
 Alpha  occ. eigenvalues --   -0.54910  -0.53058  -0.52359  -0.51659  -0.49088
 Alpha  occ. eigenvalues --   -0.47030  -0.45396  -0.45217  -0.44061  -0.43531
 Alpha  occ. eigenvalues --   -0.42922  -0.41622  -0.40307  -0.38341  -0.38168
 Alpha  occ. eigenvalues --   -0.35757  -0.35101  -0.30780  -0.29622  -0.27553
 Alpha  occ. eigenvalues --   -0.26858  -0.26302
 Alpha virt. eigenvalues --   -0.05561  -0.04324  -0.01052   0.04334   0.07039
 Alpha virt. eigenvalues --    0.08249   0.11630   0.12921   0.14318   0.14468
 Alpha virt. eigenvalues --    0.14835   0.16987   0.17627   0.18258   0.20926
 Alpha virt. eigenvalues --    0.22523   0.26309   0.28102   0.28375   0.30242
 Alpha virt. eigenvalues --    0.31231   0.34368   0.38241   0.39275   0.46763
 Alpha virt. eigenvalues --    0.47807   0.49999   0.50188   0.51065   0.52714
 Alpha virt. eigenvalues --    0.53271   0.53890   0.54823   0.55881   0.56679
 Alpha virt. eigenvalues --    0.58436   0.59068   0.60194   0.60868   0.60992
 Alpha virt. eigenvalues --    0.62293   0.63880   0.64912   0.66650   0.68384
 Alpha virt. eigenvalues --    0.72014   0.72789   0.75105   0.78400   0.80137
 Alpha virt. eigenvalues --    0.81042   0.82011   0.83744   0.84273   0.86497
 Alpha virt. eigenvalues --    0.87087   0.87850   0.89396   0.91652   0.92622
 Alpha virt. eigenvalues --    0.93862   0.94824   0.96176   0.98036   0.98457
 Alpha virt. eigenvalues --    1.01113   1.05255   1.06378   1.07323   1.10100
 Alpha virt. eigenvalues --    1.11212   1.12392   1.14011   1.18253   1.20715
 Alpha virt. eigenvalues --    1.22780   1.24610   1.27386   1.29959   1.33142
 Alpha virt. eigenvalues --    1.35696   1.37353   1.41028   1.41647   1.42823
 Alpha virt. eigenvalues --    1.44662   1.45607   1.47799   1.49830   1.54416
 Alpha virt. eigenvalues --    1.55303   1.60032   1.62461   1.65589   1.67425
 Alpha virt. eigenvalues --    1.71327   1.74937   1.76093   1.77324   1.80447
 Alpha virt. eigenvalues --    1.82696   1.83159   1.83477   1.85028   1.85761
 Alpha virt. eigenvalues --    1.87905   1.89777   1.90743   1.92977   1.94234
 Alpha virt. eigenvalues --    1.96782   1.97623   2.01856   2.06261   2.08673
 Alpha virt. eigenvalues --    2.09155   2.11962   2.12239   2.14396   2.18030
 Alpha virt. eigenvalues --    2.19608   2.23186   2.24534   2.26284   2.29165
 Alpha virt. eigenvalues --    2.30708   2.34565   2.40502   2.44601   2.49492
 Alpha virt. eigenvalues --    2.52607   2.53668   2.55373   2.59499   2.60762
 Alpha virt. eigenvalues --    2.62590   2.64559   2.68035   2.70125   2.71714
 Alpha virt. eigenvalues --    2.78291   2.81543   2.83349   2.89034   2.91618
 Alpha virt. eigenvalues --    2.95668   3.00363   3.06842   3.10318   3.31719
 Alpha virt. eigenvalues --    3.37748   3.91854   3.95962   4.03970   4.07166
 Alpha virt. eigenvalues --    4.10324   4.12713   4.24334   4.29849   4.33182
 Alpha virt. eigenvalues --    4.38675   4.43441   4.55143   4.72997
          Condensed to atoms (all electrons):
               1          2          3          4          5          6
     1  C    4.939903  -0.041516   0.506706  -0.025386   0.000004   0.518203
     2  C   -0.041516   4.994456  -0.030819   0.501407   0.000722  -0.057368
     3  C    0.506706  -0.030819   4.896495   0.518735   0.000000  -0.037197
     4  C   -0.025386   0.501407   0.518735   4.914286   0.000008  -0.036735
     5  C    0.000004   0.000722   0.000000   0.000008   5.255972  -0.000699
     6  C    0.518203  -0.057368  -0.037197  -0.036735  -0.000699   5.156086
     7  C   -0.033803   0.496444  -0.034504  -0.012755   0.004552   0.476441
     8  O    0.001738  -0.000054   0.000534  -0.000003   0.000000  -0.086927
     9  O    0.000001  -0.000572  -0.000005   0.000735  -0.077246   0.000144
    10  O    0.003054  -0.000016  -0.000043  -0.000009   0.000149  -0.086861
    11  C   -0.020527   0.004072   0.004749  -0.000174  -0.000004   0.246584
    12  C   -0.000005  -0.000748  -0.000004   0.000453   0.378441   0.003092
    13  O    0.003328  -0.051491   0.000115   0.002417  -0.101659  -0.049853
    14  H   -0.000163   0.000857  -0.000015  -0.000014   0.000008   0.000117
    15  H    0.353002   0.000441  -0.038623   0.004935   0.000000  -0.044152
    16  H    0.000333   0.354840   0.003368  -0.035542   0.000229   0.003591
    17  H   -0.036911   0.003419   0.363764  -0.037526   0.000000   0.003598
    18  H    0.005272  -0.037259  -0.045234   0.358037   0.000000   0.000974
    19  H    0.000000   0.000003   0.000000   0.000000   0.369281   0.000035
    20  H    0.000000   0.000001   0.000000   0.000000   0.359673   0.000005
    21  H    0.000000  -0.000051   0.000000   0.000000   0.339880   0.000065
               7          8          9         10         11         12
     1  C   -0.033803   0.001738   0.000001   0.003054  -0.020527  -0.000005
     2  C    0.496444  -0.000054  -0.000572  -0.000016   0.004072  -0.000748
     3  C   -0.034504   0.000534  -0.000005  -0.000043   0.004749  -0.000004
     4  C   -0.012755  -0.000003   0.000735  -0.000009  -0.000174   0.000453
     5  C    0.004552   0.000000  -0.077246   0.000149  -0.000004   0.378441
     6  C    0.476441  -0.086927   0.000144  -0.086861   0.246584   0.003092
     7  C    4.722333   0.002139  -0.003179   0.000497  -0.037888  -0.017290
     8  O    0.002139   8.023645   0.000000  -0.098574   0.587664   0.000000
     9  O   -0.003179   0.000000   8.044272  -0.000005  -0.000006   0.538131
    10  O    0.000497  -0.098574  -0.000005   8.246725   0.295818  -0.000142
    11  C   -0.037888   0.587664  -0.000006   0.295818   4.443592  -0.000144
    12  C   -0.017290   0.000000   0.538131  -0.000142  -0.000144   4.350152
    13  O    0.173964  -0.000045  -0.070393  -0.023386  -0.003490   0.234746
    14  H   -0.005270   0.004813   0.000282   0.212007  -0.022769  -0.001078
    15  H    0.005080   0.013801   0.000000   0.000395  -0.006125   0.000001
    16  H   -0.031078   0.000000   0.014281   0.000004  -0.000056   0.002239
    17  H    0.000399   0.000000   0.000000   0.000000  -0.000076   0.000000
    18  H    0.003488   0.000000  -0.000001   0.000000   0.000005  -0.000007
    19  H   -0.000100   0.000000  -0.003759  -0.000008   0.000011  -0.027803
    20  H   -0.000079   0.000000   0.001688   0.000002   0.000001  -0.024575
    21  H   -0.000159   0.000000   0.003520   0.000244  -0.000051  -0.017830
              13         14         15         16         17         18
     1  C    0.003328  -0.000163   0.353002   0.000333  -0.036911   0.005272
     2  C   -0.051491   0.000857   0.000441   0.354840   0.003419  -0.037259
     3  C    0.000115  -0.000015  -0.038623   0.003368   0.363764  -0.045234
     4  C    0.002417  -0.000014   0.004935  -0.035542  -0.037526   0.358037
     5  C   -0.101659   0.000008   0.000000   0.000229   0.000000   0.000000
     6  C   -0.049853   0.000117  -0.044152   0.003591   0.003598   0.000974
     7  C    0.173964  -0.005270   0.005080  -0.031078   0.000399   0.003488
     8  O   -0.000045   0.004813   0.013801   0.000000   0.000000   0.000000
     9  O   -0.070393   0.000282   0.000000   0.014281   0.000000  -0.000001
    10  O   -0.023386   0.212007   0.000395   0.000004   0.000000   0.000000
    11  C   -0.003490  -0.022769  -0.006125  -0.000056  -0.000076   0.000005
    12  C    0.234746  -0.001078   0.000001   0.002239   0.000000  -0.000007
    13  O    8.355718   0.044542  -0.000040  -0.004490   0.000002  -0.000042
    14  H    0.044542   0.324758  -0.000095  -0.000029   0.000000   0.000000
    15  H   -0.000040  -0.000095   0.540245   0.000010  -0.004138  -0.000229
    16  H   -0.004490  -0.000029   0.000010   0.503829  -0.000086  -0.004877
    17  H    0.000002   0.000000  -0.004138  -0.000086   0.555638  -0.004935
    18  H   -0.000042   0.000000  -0.000229  -0.004877  -0.004935   0.579480
    19  H   -0.000526   0.000131   0.000000   0.000004   0.000000   0.000000
    20  H    0.003739   0.000013   0.000000   0.000005   0.000000   0.000000
    21  H    0.002156   0.001570   0.000000  -0.000014   0.000000   0.000000
              19         20         21
     1  C    0.000000   0.000000   0.000000
     2  C    0.000003   0.000001  -0.000051
     3  C    0.000000   0.000000   0.000000
     4  C    0.000000   0.000000   0.000000
     5  C    0.369281   0.359673   0.339880
     6  C    0.000035   0.000005   0.000065
     7  C   -0.000100  -0.000079  -0.000159
     8  O    0.000000   0.000000   0.000000
     9  O   -0.003759   0.001688   0.003520
    10  O   -0.000008   0.000002   0.000244
    11  C    0.000011   0.000001  -0.000051
    12  C   -0.027803  -0.024575  -0.017830
    13  O   -0.000526   0.003739   0.002156
    14  H    0.000131   0.000013   0.001570
    15  H    0.000000   0.000000   0.000000
    16  H    0.000004   0.000005  -0.000014
    17  H    0.000000   0.000000   0.000000
    18  H    0.000000   0.000000   0.000000
    19  H    0.494696  -0.016061  -0.023457
    20  H   -0.016061   0.506318  -0.023430
    21  H   -0.023457  -0.023430   0.540085
 Mulliken charges:
               1
     1  C   -0.173233
     2  C   -0.136766
     3  C   -0.108023
     4  C   -0.152869
     5  C   -0.529312
     6  C   -0.009142
     7  C    0.290768
     8  O   -0.448732
     9  O   -0.447888
    10  O   -0.549851
    11  C    0.508815
    12  C    0.582372
    13  O   -0.515314
    14  H    0.440334
    15  H    0.175491
    16  H    0.193441
    17  H    0.156851
    18  H    0.145328
    19  H    0.207554
    20  H    0.192703
    21  H    0.177472
 Sum of Mulliken charges =   0.00000
 Mulliken charges with hydrogens summed into heavy atoms:
               1
     1  C    0.002259
     2  C    0.056675
     3  C    0.048829
     4  C   -0.007541
     5  C    0.048418
     6  C   -0.009142
     7  C    0.290768
     8  O   -0.448732
     9  O   -0.447888
    10  O   -0.109517
    11  C    0.508815
    12  C    0.582372
    13  O   -0.515314
 Electronic spatial extent (au):  <R**2>=           2427.5599
 Charge=              0.0000 electrons
 Dipole moment (field-independent basis, Debye):
    X=              1.7124    Y=             -2.8374    Z=             -1.2205  Tot=              3.5316
 Quadrupole moment (field-independent basis, Debye-Ang):
   XX=            -67.1559   YY=            -83.3549   ZZ=            -74.6609
   XY=             16.1308   XZ=             -0.2568   YZ=             -0.1634
 Traceless Quadrupole moment (field-independent basis, Debye-Ang):
   XX=              7.9013   YY=             -8.2977   ZZ=              0.3963
   XY=             16.1308   XZ=             -0.2568   YZ=             -0.1634
 Octapole moment (field-independent basis, Debye-Ang**2):
  XXX=             11.7662  YYY=            -38.5862  ZZZ=              2.3157  XYY=              7.6899
  XXY=              3.1325  XXZ=             -8.0253  XZZ=             11.1904  YZZ=              8.4934
  YYZ=             -4.6809  XYZ=             10.0860
 Hexadecapole moment (field-independent basis, Debye-Ang**3):
 XXXX=          -1655.2994 YYYY=          -1243.8971 ZZZZ=            -98.2739 XXXY=             94.9754
 XXXZ=            -12.3395 YYYX=             65.1885 YYYZ=             -8.2045 ZZZX=              1.8089
 ZZZY=             -2.0821 XXYY=           -532.2966 XXZZ=           -323.5476 YYZZ=           -225.0211
 XXYZ=             -6.0834 YYXZ=              4.4558 ZZXY=             -9.3250
 N-N= 7.724365874377D+02 E-N=-3.058711439785D+03  KE= 6.428653650929D+02
 No NMR shielding tensors so no spin-rotation constants.
 Leave Link  601 at Mon Aug  7 12:54:15 2023, MaxMem=   458752000 cpu:         0.2
 (Enter /opt/apps/apps/binapps/gaussian/g09d01_em64t/g09/l602.exe)
 FitSet:  NAtFit=    21 NAtPot=    21 NAtFrz=     0 MDM=    25 TotChg=   0.00000
 Merz-Kollman atomic radii used.

 **********************************************************************

            Electrostatic Properties Using The SCF Density

 **********************************************************************

       Atomic Center    1 is at  -2.432937 -0.293994 -0.012915
       Atomic Center    2 is at  -0.140456 -1.940940 -0.127511
       Atomic Center    3 is at  -2.626951 -1.673334 -0.020270
       Atomic Center    4 is at  -1.451482 -2.444122 -0.081238
       Atomic Center    5 is at   3.402366  0.730989  0.038051
       Atomic Center    6 is at  -1.131150  0.289712 -0.013786
       Atomic Center    7 is at  -0.002941 -0.519913 -0.114119
       Atomic Center    8 is at  -1.960194  2.521771  0.531355
       Atomic Center    9 is at   2.648187 -1.478572  0.395667
       Atomic Center   10 is at  -0.059618  2.457835 -0.474381
       Atomic Center   11 is at  -1.094995  1.842532  0.027867
       Atomic Center   12 is at   2.406349 -0.356560 -0.051789
       Atomic Center   13 is at   1.210661  0.164371 -0.158025
       Atomic Center   14 is at   0.592222  1.736869 -0.461255
       Atomic Center   15 is at  -3.275515  0.396325  0.053313
       Atomic Center   16 is at   0.709587 -2.608339 -0.190100
       Atomic Center   17 is at  -3.632442 -2.081493  0.086812
       Atomic Center   18 is at  -1.641647 -3.510088 -0.008849
       Atomic Center   19 is at   3.310864  1.077822  1.091365
       Atomic Center   20 is at   4.410173  0.292569 -0.138986
       Atomic Center   21 is at   3.247648  1.566864 -0.654958
     968 points will be used for fitting atomic charges
 Fitting point charges to electrostatic potential
 Charges from ESP fit, RMS=   0.00122 RRMS=   0.06550:
 ESP charges:
               1
     1  C   -0.033263
     2  C   -0.237517
     3  C   -0.166450
     4  C   -0.071858
     5  C   -0.580505
     6  C   -0.297857
     7  C    0.292359
     8  O   -0.499861
     9  O   -0.454711
    10  O   -0.493077
    11  C    0.724394
    12  C    0.639082
    13  O   -0.209036
    14  H    0.281081
    15  H    0.123231
    16  H    0.165698
    17  H    0.154561
    18  H    0.128141
    19  H    0.200759
    20  H    0.160385
    21  H    0.174444
 Sum of ESP charges =   0.00000
 ESP charges with hydrogens summed into heavy atoms:
               1
     1  C    0.089968
     2  C   -0.071819
     3  C   -0.011889
     4  C    0.056283
     5  C   -0.044917
     6  C   -0.297857
     7  C    0.292359
     8  O   -0.499861
     9  O   -0.454711
    10  O   -0.211997
    11  C    0.724394
    12  C    0.639082
    13  O   -0.209036
 Charge=   0.00000 Dipole=     1.7320    -2.8596    -1.2615 Tot=     3.5733
 -----------------------------------------------------------------

              Electrostatic Properties (Atomic Units)

 -----------------------------------------------------------------
    Center     Electric         -------- Electric Field --------
               Potential          X             Y             Z
 -----------------------------------------------------------------
    1 Atom    -14.710574
    2 Atom    -14.703409
    3 Atom    -14.712794
    4 Atom    -14.708274
    5 Atom    -14.703255
    6 Atom    -14.695404
    7 Atom    -14.630528
    8 Atom    -22.343885
    9 Atom    -22.305927
   10 Atom    -22.275076
   11 Atom    -14.607008
   12 Atom    -14.575183
   13 Atom    -22.202121
   14 Atom     -0.950257
   15 Atom     -1.092907
   16 Atom     -1.078968
   17 Atom     -1.078993
   18 Atom     -1.091212
   19 Atom     -1.062216
   20 Atom     -1.078721
   21 Atom     -1.074853
 -----------------------------------------------------------------
 Leave Link  602 at Mon Aug  7 12:54:15 2023, MaxMem=   458752000 cpu:         0.2
 (Enter /opt/apps/apps/binapps/gaussian/g09d01_em64t/g09/l701.exe)
 Compute integral first derivatives.
 ... and contract with generalized density number  0.
 R6Disp: Adding Grimme-D3 dispersion energy 1st derivatives to the gradient.
 Leave Link  701 at Mon Aug  7 12:54:15 2023, MaxMem=   458752000 cpu:         0.2
 (Enter /opt/apps/apps/binapps/gaussian/g09d01_em64t/g09/l702.exe)
 L702 exits ... SP integral derivatives will be done elsewhere.
 Leave Link  702 at Mon Aug  7 12:54:15 2023, MaxMem=   458752000 cpu:         0.0
 (Enter /opt/apps/apps/binapps/gaussian/g09d01_em64t/g09/l703.exe)
 Compute integral first derivatives, UseDBF=F ICtDFT=           0.
 Integral derivatives from FoFJK, PRISM(SPDF).
 Calling FoFJK, ICntrl=      2127 FMM=F ISym2X=0 I1Cent= 0 IOpClX= 0 NMat=1 NMatS=1 NMatT=0.
 FoFJK:  IHMeth= 1 ICntrl=    2127 DoSepK=F KAlg= 0 I1Cent=   0 FoldK=F
 IRaf=         0 NMat=   1 IRICut=       1 DoRegI=T DoRafI=F ISym2E= 0.
 FoFCou: FMM=F IPFlag=           0 FMFlag=      100000 FMFlg1=         800
         NFxFlg=           0 DoJE=F BraDBF=F KetDBF=F FulRan=T
         wScrn=  0.000000 ICntrl=    2127 IOpCl=  0 I1Cent=           0 NGrid=           0
         NMat0=    1 NMatS0=      1 NMatT0=    0 NMatD0=    1 NMtDS0=    0 NMtDT0=    0
 Symmetry not used in FoFCou.
 Leave Link  703 at Mon Aug  7 12:54:52 2023, MaxMem=   458752000 cpu:        37.0
 (Enter /opt/apps/apps/binapps/gaussian/g09d01_em64t/g09/l716.exe)
 Dipole        = 6.73720906D-01-1.11630119D+00-4.80164820D-01
 ***** Axes restored to original set *****
 -------------------------------------------------------------------
 Center     Atomic                   Forces (Hartrees/Bohr)
 Number     Number              X              Y              Z
 -------------------------------------------------------------------
      1        6          -0.005750974   -0.009075275   -0.009596750
      2        6           0.017613682   -0.012931315   -0.008929998
      3        6          -0.014216822   -0.003896919   -0.027332875
      4        6           0.002091419   -0.000888205    0.018365210
      5        6          -0.017956392    0.013619484   -0.022340255
      6        6           0.026773314   -0.012593669   -0.006122303
      7        6          -0.002535464    0.010464617    0.031691545
      8        8           0.013038191   -0.000646697    0.019808163
      9        8           0.027560903    0.009610060   -0.019194968
     10        8          -0.023169912    0.025728560   -0.017087926
     11        6           0.012228359   -0.029688141    0.030424511
     12        6          -0.075068530   -0.004887166    0.036914486
     13        8           0.051214829   -0.007517536    0.006452741
     14        1          -0.005949327    0.013757256   -0.022885536
     15        1          -0.003340389    0.001924731   -0.000534824
     16        1           0.000175136   -0.003855666   -0.001439475
     17        1          -0.003502514    0.006957362   -0.001659607
     18        1          -0.007625837    0.009816165   -0.002529233
     19        1           0.002075467    0.009871858   -0.007491369
     20        1           0.006817074   -0.012867545    0.000573192
     21        1          -0.000472213   -0.002901960    0.002915270
 -------------------------------------------------------------------
 Cartesian Forces:  Max     0.075068530 RMS     0.018463834
 Z-matrix is all fixed cartesians, so copy forces.
 Leave Link  716 at Mon Aug  7 12:54:53 2023, MaxMem=   458752000 cpu:         0.0
 (Enter /opt/apps/apps/binapps/gaussian/g09d01_em64t/g09/l103.exe)

 GradGradGradGradGradGradGradGradGradGradGradGradGradGradGradGradGradGrad
 Berny optimization.
 Search for a local minimum.
 Step number   1 out of a maximum of    2
 All quantities printed in internal units (Hartrees-Bohrs-Radians)
 Second derivative matrix not updated -- first step.
 ITU=  0
     Eigenvalues ---    0.00047   0.00102   0.00182   0.00210   0.00496
     Eigenvalues ---    0.00877   0.00945   0.01439   0.01867   0.02393
     Eigenvalues ---    0.02606   0.03310   0.03594   0.04519   0.05289
     Eigenvalues ---    0.05457   0.06469   0.06923   0.07108   0.07598
     Eigenvalues ---    0.07955   0.09104   0.10493   0.11765   0.13213
     Eigenvalues ---    0.13339   0.13973   0.15213   0.15311   0.18721
     Eigenvalues ---    0.21152   0.22599   0.24440   0.28266   0.30717
     Eigenvalues ---    0.31476   0.37277   0.41904   0.44572   0.47536
     Eigenvalues ---    0.60689   0.69269   0.79008   0.85512   0.91639
     Eigenvalues ---    0.93745   1.07695   1.09767   1.15858   1.22985
     Eigenvalues ---    1.41797   1.42872   1.47926   1.56715   1.65052
     Eigenvalues ---    2.23252   2.32825
 Quadratic step=2.124D+00 exceeds max=3.000D-01 adjusted using Lamda=-1.522D-01.
 Angle between NR and scaled steps=  60.87 degrees.
 Angle between quadratic step and forces=  43.63 degrees.
 Linear search not attempted -- first point.
 TrRot= -0.017270 -0.001975  0.028124  0.926625  0.000625 -0.927170
 Variable       Old X    -DE/DX   Delta X   Delta X   Delta X     New X
                                 (Linear)    (Quad)   (Total)
    X1       26.46941  -0.00575   0.00000  -0.00698  -0.00276  26.46665
    Y1       21.74588  -0.00908   0.00000  -0.03109  -0.03465  21.71123
    Z1       25.74963  -0.00960   0.00000  -0.02774  -0.02041  25.72922
    X2       22.47764   0.01761   0.00000   0.03119   0.03750  22.51514
    Y2       25.26863  -0.01293   0.00000  -0.01697  -0.01816  25.25047
    Z2       26.14562  -0.00893   0.00000   0.00588   0.01293  26.15855
    X3       26.20399  -0.01422   0.00000  -0.03436  -0.02858  26.17541
    Y3       23.04217  -0.00390   0.00000  -0.01365  -0.01593  23.02624
    Z3       28.02516  -0.02733   0.00000  -0.04859  -0.04180  27.98336
    X4       24.18974   0.00209   0.00000  -0.00941  -0.00261  24.18712
    Y4       24.77537  -0.00089   0.00000  -0.00385  -0.00495  24.77042
    Z4       28.11416   0.01837   0.00000   0.02329   0.02995  28.14411
    X5       18.07623  -0.01796   0.00000  -0.03873  -0.03533  18.04090
    Y5       24.83599   0.01362   0.00000   0.01532   0.01298  24.84897
    Z5       19.01433  -0.02234   0.00000  -0.03934  -0.03041  18.98391
    X6       24.75542   0.02677   0.00000   0.04493   0.04858  24.80400
    Y6       22.08533  -0.01259   0.00000  -0.01460  -0.01828  22.06705
    Z6       23.69648  -0.00612   0.00000  -0.01687  -0.00909  23.68739
    X7       22.83844  -0.00254   0.00000   0.03799   0.04270  22.88114
    Y7       23.87987   0.01046   0.00000   0.00160  -0.00092  23.87896
    Z7       23.86079   0.03169   0.00000   0.03812   0.04572  23.90651
    X8       26.32833   0.01304   0.00000   0.06609   0.06690  26.39523
    Y8       18.41071  -0.00065   0.00000  -0.00264  -0.00829  18.40242
    Z8       21.38775   0.01981   0.00000   0.06849   0.07750  21.46526
    X9       17.92021   0.02756   0.00000   0.02288   0.02861  17.94882
    Y9       26.07215   0.00961   0.00000   0.07299   0.07286  26.14501
    Z9       23.30035  -0.01919   0.00000   0.00509   0.01341  23.31376
   X10       24.52866  -0.02317   0.00000  -0.04363  -0.04211  24.48655
   Y10       21.26646   0.02573   0.00000   0.03506   0.02928  21.29574
   Z10       19.12236  -0.01709   0.00000  -0.00035   0.00793  19.13029
   X11       25.29197   0.01223   0.00000  -0.00268  -0.00081  25.29115
   Y11       20.44721  -0.02969   0.00000  -0.03851  -0.04362  20.40359
   Z11       21.31945   0.03042   0.00000   0.01973   0.02816  21.34760
   X12       19.22241  -0.07507   0.00000  -0.08562  -0.08102  19.14139
   Y12       25.36634  -0.00489   0.00000  -0.09289  -0.09455  25.27179
   Z12       21.50435   0.03691   0.00000   0.03491   0.04321  21.54756
   X13       21.34414   0.05121   0.00000   0.05423   0.05827  21.40241
   Y13       24.11205  -0.00752   0.00000   0.01775   0.01496  24.12701
   Z13       21.70400   0.00645   0.00000   0.02559   0.03362  21.73762
   X14       23.24120  -0.00595   0.00000  -0.03934  -0.03699  23.20421
   Y14       22.46510   0.01376   0.00000   0.08303   0.07816  22.54326
   Z14       19.65138  -0.02289   0.00000  -0.10575  -0.09761  19.55378
   X15       27.94546  -0.00334   0.00000  -0.00438  -0.00101  27.94445
   Y15       20.32932   0.00192   0.00000  -0.01101  -0.01550  20.31383
   Z15       25.49024  -0.00053   0.00000  -0.01032  -0.00284  25.48740
   X16       20.99586   0.00018   0.00000   0.01086   0.01800  21.01386
   Y16       26.66177  -0.00386   0.00000  -0.02820  -0.02847  26.63330
   Z16       26.36576  -0.00144   0.00000  -0.01290  -0.00598  26.35978
   X17       27.43117  -0.00350   0.00000  -0.02755  -0.02139  27.40977
   Y17       22.58616   0.00696   0.00000   0.02862   0.02647  22.61264
   Z17       29.61650  -0.00166   0.00000  -0.03462  -0.02808  29.58841
   X18       23.96124  -0.00763   0.00000  -0.03362  -0.02565  23.93559
   Y18       25.63824   0.00982   0.00000   0.04317   0.04311  25.68135
   Z18       29.96047  -0.00253   0.00000  -0.00333   0.00297  29.96344
   X19       17.22546   0.00208   0.00000  -0.01881  -0.01636  17.20910
   Y19       22.92960   0.00987   0.00000   0.02736   0.02559  22.95519
   Z19       19.26603  -0.00749   0.00000  -0.06354  -0.05336  19.21267
   X20       16.57416   0.00682   0.00000  -0.01262  -0.00858  16.56558
   Y20       26.26747  -0.01287   0.00000  -0.01562  -0.01732  26.25014
   Z20       18.66788   0.00057   0.00000  -0.02335  -0.01457  18.65332
   X21       19.39401  -0.00047   0.00000  -0.00016   0.00265  19.39666
   Y21       24.83447  -0.00290   0.00000   0.00109  -0.00277  24.83170
   Z21       17.41463   0.00292   0.00000   0.00031   0.00873  17.42337
         Item               Value     Threshold  Converged?
 Maximum Force            0.075069     0.000450     NO 
 RMS     Force            0.018464     0.000300     NO 
 Maximum Displacement     0.097606     0.001800     NO 
 RMS     Displacement     0.037378     0.001200     NO 
 Predicted change in Energy=-2.276211D-02
 GradGradGradGradGradGradGradGradGradGradGradGradGradGradGradGradGradGrad

 Leave Link  103 at Mon Aug  7 12:54:53 2023, MaxMem=   458752000 cpu:         0.0
 (Enter /opt/apps/apps/binapps/gaussian/g09d01_em64t/g09/l9999.exe)
 1\1\GINC-NODE611\Force\RB3LYP\6-31G(d)\C9H8O4\MBDX6CW3\07-Aug-2023\0\\
 #p b3lyp/6-31g* pop=mk empiricaldispersion=gd3 int(ultrafine) force\\a
 spirin\\0,1\C,14.00700688,11.50742531,13.62611771\C,11.89465523,13.371
 58442,13.83566856\C,13.86655331,12.19339013,14.83027697\C,12.80065656,
 13.11056256,14.87737417\C,9.56552863,13.14263821,10.06194949\C,13.1000
 0539,11.68705463,12.5396347\C,12.08558202,12.63668537,12.62658715\O,13
 .93234968,9.74253058,11.31790996\O,9.48296845,13.79678607,12.33001232\
 O,12.98000693,11.25372767,10.11911511\C,13.38393211,10.82019806,11.281
 76451\C,10.17206311,13.42328906,11.37961149\O,11.29483342,12.75954962,
 11.48526192\H,12.29871273,11.88802004,10.39906383\H,14.78810072,10.757
 81465,13.48885536\H,11.1105299,14.10880208,13.9521575\H,14.5159483,11.
 95208311,15.67237496\H,12.67974019,13.5671699,15.85439801\H,9.11532044
 ,12.13382244,10.19514203\H,8.77066731,13.9001441,9.87861812\H,10.26286
 96,13.14183712,9.21542764\\Version=ES64L-G09RevD.01\State=1-A\HF=-648.
 6747946\RMSD=5.369e-09\RMSF=1.846e-02\Dipole=-0.5042355,1.2261595,0.41
 57715\Quadrupole=-0.7567352,-5.8378628,6.594598,5.1862291,9.6354335,-4
 .6257706\PG=C01 [X(C9H8O4)]\\@


 IT IS NOT EASY TO DESCRIBE
     THE SEA WITH THE MOUTH

                   -- KOKYU
 Job cpu time:       0 days  0 hours  2 minutes 59.3 seconds.
 File lengths (MBytes):  RWF=     20 Int=      0 D2E=      0 Chk=      3 Scr=      1
 Normal termination of Gaussian 09 at Mon Aug  7 12:54:53 2023.
