 Entering Gaussian System, Link 0=/opt/apps/apps/binapps/gaussian/g09d01_em64t/g09/g09
 Initial command:
 /opt/apps/apps/binapps/gaussian/g09d01_em64t/g09/l1.exe "/net/scratch2/mbdx6cw3/aspirin/300K-meta/dft/qm_input/gau_temp_20/Gau-14302.inp" -scrdir="/net/scratch2/mbdx6cw3/aspirin/300K-meta/dft/qm_input/gau_temp_20/"
 Entering Link 1 = /opt/apps/apps/binapps/gaussian/g09d01_em64t/g09/l1.exe PID=     14305.
  
 Copyright (c) 1988,1990,1992,1993,1995,1998,2003,2009,2013,
            Gaussian, Inc.  All Rights Reserved.
  
 This is part of the Gaussian(R) 09 program.  It is based on
 the Gaussian(R) 03 system (copyright 2003, Gaussian, Inc.),
 the Gaussian(R) 98 system (copyright 1998, Gaussian, Inc.),
 the Gaussian(R) 94 system (copyright 1995, Gaussian, Inc.),
 the Gaussian 92(TM) system (copyright 1992, Gaussian, Inc.),
 the Gaussian 90(TM) system (copyright 1990, Gaussian, Inc.),
 the Gaussian 88(TM) system (copyright 1988, Gaussian, Inc.),
 the Gaussian 86(TM) system (copyright 1986, Carnegie Mellon
 University), and the Gaussian 82(TM) system (copyright 1983,
 Carnegie Mellon University). Gaussian is a federally registered
 trademark of Gaussian, Inc.
  
 This software contains proprietary and confidential information,
 including trade secrets, belonging to Gaussian, Inc.
  
 This software is provided under written license and may be
 used, copied, transmitted, or stored only in accord with that
 written license.
  
 The following legend is applicable only to US Government
 contracts under FAR:
  
                    RESTRICTED RIGHTS LEGEND
  
 Use, reproduction and disclosure by the US Government is
 subject to restrictions as set forth in subparagraphs (a)
 and (c) of the Commercial Computer Software - Restricted
 Rights clause in FAR 52.227-19.
  
 Gaussian, Inc.
 340 Quinnipiac St., Bldg. 40, Wallingford CT 06492
  
  
 ---------------------------------------------------------------
 Warning -- This program may not be used in any manner that
 competes with the business of Gaussian, Inc. or will provide
 assistance to any competitor of Gaussian, Inc.  The licensee
 of this program is prohibited from giving any competitor of
 Gaussian, Inc. access to this program.  By using this program,
 the user acknowledges that Gaussian, Inc. is engaged in the
 business of creating and licensing software in the field of
 computational chemistry and represents and warrants to the
 licensee that it is not a competitor of Gaussian, Inc. and that
 it will not use this program in any manner prohibited above.
 ---------------------------------------------------------------
  

 Cite this work as:
 Gaussian 09, Revision D.01,
 M. J. Frisch, G. W. Trucks, H. B. Schlegel, G. E. Scuseria, 
 M. A. Robb, J. R. Cheeseman, G. Scalmani, V. Barone, B. Mennucci, 
 G. A. Petersson, H. Nakatsuji, M. Caricato, X. Li, H. P. Hratchian, 
 A. F. Izmaylov, J. Bloino, G. Zheng, J. L. Sonnenberg, M. Hada, 
 M. Ehara, K. Toyota, R. Fukuda, J. Hasegawa, M. Ishida, T. Nakajima, 
 Y. Honda, O. Kitao, H. Nakai, T. Vreven, J. A. Montgomery, Jr., 
 J. E. Peralta, F. Ogliaro, M. Bearpark, J. J. Heyd, E. Brothers, 
 K. N. Kudin, V. N. Staroverov, T. Keith, R. Kobayashi, J. Normand, 
 K. Raghavachari, A. Rendell, J. C. Burant, S. S. Iyengar, J. Tomasi, 
 M. Cossi, N. Rega, J. M. Millam, M. Klene, J. E. Knox, J. B. Cross, 
 V. Bakken, C. Adamo, J. Jaramillo, R. Gomperts, R. E. Stratmann, 
 O. Yazyev, A. J. Austin, R. Cammi, C. Pomelli, J. W. Ochterski, 
 R. L. Martin, K. Morokuma, V. G. Zakrzewski, G. A. Voth, 
 P. Salvador, J. J. Dannenberg, S. Dapprich, A. D. Daniels, 
 O. Farkas, J. B. Foresman, J. V. Ortiz, J. Cioslowski, 
 and D. J. Fox, Gaussian, Inc., Wallingford CT, 2013.
 
 ******************************************
 Gaussian 09:  ES64L-G09RevD.01 24-Apr-2013
                 7-Aug-2023 
 ******************************************
 %chk=./gau_temp_20/mol_chk.chk
 %mem=3500MB
 -------------------------------------------------------------------
 #p b3lyp/6-31g* pop=mk empiricaldispersion=gd3 int(ultrafine) force
 -------------------------------------------------------------------
 1/10=7,30=1,38=1/1,3;
 2/12=2,17=6,18=5,40=1/2;
 3/5=1,6=6,7=1,11=2,16=1,25=1,30=1,71=1,74=-5,75=-5,124=31/1,2,3;
 4//1;
 5/5=2,38=5/2;
 6/7=2,8=2,9=2,10=2,15=8,20=1,28=1/1,2;
 7/29=1/1,2,3,16;
 1/10=7,30=1/3;
 99//99;
 Leave Link    1 at Mon Aug  7 13:12:53 2023, MaxMem=   458752000 cpu:         0.0
 (Enter /opt/apps/apps/binapps/gaussian/g09d01_em64t/g09/l101.exe)
 -------
 aspirin
 -------
 Symbolic Z-matrix:
 Charge =  0 Multiplicity = 1
 C                     14.32449   12.55603   11.22807 
 C                     11.61782   13.00146   10.50342 
 C                     13.94461   12.97857   9.92279 
 C                     12.61412   13.17191   9.59714 
 C                     9.11536   11.64718   13.93572 
 C                     13.31489   12.42442   12.16829 
 C                     11.95135   12.6172   11.82794 
 O                     14.93723   11.90127   13.8675 
 O                     9.52309   11.0955   11.74894 
 O                     12.82146   11.82946   14.45108 
 C                     13.76308   11.99083   13.56374 
 C                     9.67914   11.9374   12.54723 
 O                     10.91483   12.56111   12.67857 
 H                     12.07909   12.23549   13.85846 
 H                     15.35218   12.28599   11.43462 
 H                     10.55113   13.16671   10.21937 
 H                     14.71675   13.0646   9.12963 
 H                     12.33789   13.48316   8.58514 
 H                     8.2119    10.97525   13.91002 
 H                     9.95755   11.1184   14.42803 
 H                     8.85958   12.59002   14.48593 
 
 NAtoms=     21 NQM=       21 NQMF=       0 NMMI=      0 NMMIF=      0
                NMic=       0 NMicF=      0.
                    Isotopes and Nuclear Properties:
 (Nuclear quadrupole moments (NQMom) in fm**2, nuclear magnetic moments (NMagM)
  in nuclear magnetons)

  Atom         1           2           3           4           5           6           7           8           9          10
 IAtWgt=          12          12          12          12          12          12          12          16          16          16
 AtmWgt=  12.0000000  12.0000000  12.0000000  12.0000000  12.0000000  12.0000000  12.0000000  15.9949146  15.9949146  15.9949146
 NucSpn=           0           0           0           0           0           0           0           0           0           0
 AtZEff=   0.0000000   0.0000000   0.0000000   0.0000000   0.0000000   0.0000000   0.0000000   0.0000000   0.0000000   0.0000000
 NQMom=    0.0000000   0.0000000   0.0000000   0.0000000   0.0000000   0.0000000   0.0000000   0.0000000   0.0000000   0.0000000
 NMagM=    0.0000000   0.0000000   0.0000000   0.0000000   0.0000000   0.0000000   0.0000000   0.0000000   0.0000000   0.0000000
 AtZNuc=   6.0000000   6.0000000   6.0000000   6.0000000   6.0000000   6.0000000   6.0000000   8.0000000   8.0000000   8.0000000

  Atom        11          12          13          14          15          16          17          18          19          20
 IAtWgt=          12          12          16           1           1           1           1           1           1           1
 AtmWgt=  12.0000000  12.0000000  15.9949146   1.0078250   1.0078250   1.0078250   1.0078250   1.0078250   1.0078250   1.0078250
 NucSpn=           0           0           0           1           1           1           1           1           1           1
 AtZEff=   0.0000000   0.0000000   0.0000000   0.0000000   0.0000000   0.0000000   0.0000000   0.0000000   0.0000000   0.0000000
 NQMom=    0.0000000   0.0000000   0.0000000   0.0000000   0.0000000   0.0000000   0.0000000   0.0000000   0.0000000   0.0000000
 NMagM=    0.0000000   0.0000000   0.0000000   2.7928460   2.7928460   2.7928460   2.7928460   2.7928460   2.7928460   2.7928460
 AtZNuc=   6.0000000   6.0000000   8.0000000   1.0000000   1.0000000   1.0000000   1.0000000   1.0000000   1.0000000   1.0000000

  Atom        21
 IAtWgt=           1
 AtmWgt=   1.0078250
 NucSpn=           1
 AtZEff=   0.0000000
 NQMom=    0.0000000
 NMagM=    2.7928460
 AtZNuc=   1.0000000
 Leave Link  101 at Mon Aug  7 13:12:53 2023, MaxMem=   458752000 cpu:         0.1
 (Enter /opt/apps/apps/binapps/gaussian/g09d01_em64t/g09/l103.exe)

 GradGradGradGradGradGradGradGradGradGradGradGradGradGradGradGradGradGrad
 Berny optimization.
 Initialization pass.
 Trust Radius=3.00D-01 FncErr=1.00D-07 GrdErr=1.00D-07
 Number of steps in this run=      2 maximum allowed number of steps=      2.
 GradGradGradGradGradGradGradGradGradGradGradGradGradGradGradGradGradGrad

 Leave Link  103 at Mon Aug  7 13:12:53 2023, MaxMem=   458752000 cpu:         0.0
 (Enter /opt/apps/apps/binapps/gaussian/g09d01_em64t/g09/l202.exe)
                          Input orientation:                          
 ---------------------------------------------------------------------
 Center     Atomic      Atomic             Coordinates (Angstroms)
 Number     Number       Type             X           Y           Z
 ---------------------------------------------------------------------
      1          6           0       14.324487   12.556028   11.228068
      2          6           0       11.617821   13.001455   10.503422
      3          6           0       13.944607   12.978568    9.922788
      4          6           0       12.614123   13.171915    9.597145
      5          6           0        9.115362   11.647183   13.935723
      6          6           0       13.314890   12.424424   12.168288
      7          6           0       11.951352   12.617197   11.827936
      8          8           0       14.937233   11.901270   13.867499
      9          8           0        9.523091   11.095501   11.748937
     10          8           0       12.821462   11.829463   14.451078
     11          6           0       13.763078   11.990830   13.563735
     12          6           0        9.679143   11.937395   12.547226
     13          8           0       10.914828   12.561107   12.678567
     14          1           0       12.079085   12.235488   13.858464
     15          1           0       15.352184   12.285991   11.434623
     16          1           0       10.551131   13.166709   10.219368
     17          1           0       14.716748   13.064600    9.129628
     18          1           0       12.337887   13.483163    8.585144
     19          1           0        8.211901   10.975245   13.910017
     20          1           0        9.957548   11.118395   14.428030
     21          1           0        8.859583   12.590020   14.485925
 ---------------------------------------------------------------------
                    Distance matrix (angstroms):
                    1          2          3          4          5
     1  C    0.000000
     2  C    2.837174   0.000000
     3  C    1.423589   2.398247   0.000000
     4  C    2.442248   1.357575   1.383335   0.000000
     5  C    5.940739   4.458368   6.418554   5.778356   0.000000
     6  C    1.385865   2.446382   2.397059   2.767778   4.622117
     7  C    2.448541   1.418885   2.780871   2.392364   3.664224
     8  O    2.787608   4.852413   4.207923   5.024669   5.827812
     9  O    5.045577   3.093843   5.141066   4.300719   2.291861
    10  O    3.629708   4.290257   4.804925   5.040420   3.746197
    11  C    2.467787   3.871564   3.776914   4.295219   4.675226
    12  C    4.868481   3.011284   5.115261   4.340636   1.526433
    13  O    3.705368   2.327953   4.116814   3.571534   2.377767
    14  H    3.473264   3.472143   4.418357   4.395680   3.022536
    15  H    1.082472   3.914650   2.178665   3.414406   6.749927
    16  H    3.953306   1.116165   3.411603   2.154791   4.263999
    17  H    2.194530   3.390375   1.110273   2.156646   7.515527
    18  H    3.433832   2.104834   2.150687   1.094224   6.510314
    19  H    6.859697   5.225965   7.264655   6.542612   1.126234
    20  H    5.601492   4.658860   6.297149   5.883178   1.109621
    21  H    6.362387   4.861840   6.843293   6.191554   1.121199
                    6          7          8          9         10
     6  C    0.000000
     7  C    1.418533   0.000000
     8  O    2.406866   3.686170   0.000000
     9  O    4.039756   2.866749   5.869454   0.000000
    10  O    2.410099   2.873759   2.195952   4.326606   0.000000
    11  C    1.528447   2.586056   1.216113   4.698148   1.303863
    12  C    3.687743   2.478396   5.421433   1.170642   3.675660
    13  O    2.457512   1.342052   4.246020   2.224666   2.704136
    14  H    2.102285   2.070039   2.877636   3.504679   1.033040
    15  H    2.169791   3.439483   2.497815   5.957716   3.963833
    16  H    3.462317   2.202289   5.843636   2.772427   4.984978
    17  H    3.407123   3.889531   4.883582   6.141026   5.782344
    18  H    3.861914   3.378610   6.096085   4.861439   6.113734
    19  H    5.583389   4.584164   6.788918   2.530602   4.719162
    20  H    4.252516   3.603075   5.071918   2.714188   2.950958
    21  H    5.024801   4.077338   6.147736   3.188249   4.034371
                   11         12         13         14         15
    11  C    0.000000
    12  C    4.208881   0.000000
    13  O    3.036655   1.390390   0.000000
    14  H    1.727008   2.750986   1.689284   0.000000
    15  H    2.673106   5.791614   4.616624   4.073172   0.000000
    16  H    4.783732   2.773175   2.558650   4.055223   5.030171
    17  H    4.660877   6.190964   5.225234   5.477826   2.514560
    18  H    5.389304   5.015617   4.430733   5.425087   4.317260
    19  H    5.653927   2.221650   3.367081   4.067675   7.670024
    20  H    3.998776   2.070192   2.461386   2.464391   6.279002
    21  H    5.025309   2.203668   2.737044   3.299181   7.180302
                   16         17         18         19         20
    16  H    0.000000
    17  H    4.307009   0.000000
    18  H    2.441993   2.476012   0.000000
    19  H    4.888292   8.338498   7.188024   0.000000
    20  H    4.718132   7.383141   6.737764   1.826503   0.000000
    21  H    4.625734   7.951197   6.907642   1.832664   1.836997
                   21
    21  H    0.000000
 Stoichiometry    C9H8O4
 Framework group  C1[X(C9H8O4)]
 Deg. of freedom    57
 Full point group                 C1      NOp   1
 Largest Abelian subgroup         C1      NOp   1
 Largest concise Abelian subgroup C1      NOp   1
                         Standard orientation:                         
 ---------------------------------------------------------------------
 Center     Atomic      Atomic             Coordinates (Angstroms)
 Number     Number       Type             X           Y           Z
 ---------------------------------------------------------------------
      1          6           0        2.423438   -0.183414    0.191481
      2          6           0        0.229978   -1.909548   -0.317194
      3          6           0        2.572818   -1.595336    0.087728
      4          6           0        1.479960   -2.410686   -0.145682
      5          6           0       -3.455746    0.593978   -0.159576
      6          6           0        1.157257    0.335674   -0.027508
      7          6           0        0.038408   -0.504826   -0.259829
      8          8           0        2.013990    2.573959    0.194051
      9          8           0       -2.468955   -1.132197    0.980245
     10          8           0       -0.151504    2.358175   -0.099680
     11          6           0        1.039923    1.856476    0.070187
     12          6           0       -2.428320   -0.526323   -0.020588
     13          8           0       -1.209741   -0.092685   -0.530693
     14          1           0       -0.572899    1.467239   -0.409244
     15          1           0        3.259954    0.430733    0.499391
     16          1           0       -0.636851   -2.586273   -0.508179
     17          1           0        3.562559   -2.056632    0.288539
     18          1           0        1.609731   -3.495365   -0.208598
     19          1           0       -4.409326    0.386037    0.402428
     20          1           0       -2.931806    1.455312    0.303944
     21          1           0       -3.697979    0.804955   -1.233773
 ---------------------------------------------------------------------
 Rotational constants (GHZ):      1.0830269      0.7189443      0.4525134
 Leave Link  202 at Mon Aug  7 13:12:53 2023, MaxMem=   458752000 cpu:         0.0
 (Enter /opt/apps/apps/binapps/gaussian/g09d01_em64t/g09/l301.exe)
 Standard basis: 6-31G(d) (6D, 7F)
 Ernie: Thresh=  0.10000D-02 Tol=  0.10000D-05 Strict=F.
 There are   211 symmetry adapted cartesian basis functions of A   symmetry.
 There are   211 symmetry adapted basis functions of A   symmetry.
   211 basis functions,   396 primitive gaussians,   211 cartesian basis functions
    47 alpha electrons       47 beta electrons
       nuclear repulsion energy       776.3500153497 Hartrees.
 IExCor=  402 DFT=T Ex+Corr=B3LYP ExCW=0 ScaHFX=  0.200000
 ScaDFX=  0.800000  0.720000  1.000000  0.810000 ScalE2=  1.000000  1.000000
 IRadAn=      5 IRanWt=     -1 IRanGd=            0 ICorTp=0 IEmpDi=131
 NAtoms=   21 NActive=   21 NUniq=   21 SFac= 1.00D+00 NAtFMM=   60 NAOKFM=F Big=F
 Integral buffers will be    131072 words long.
 Raffenetti 2 integral format.
 Two-electron integral symmetry is turned on.
 R6Disp:  Grimme-D3 Dispersion energy=       -0.0178840422 Hartrees.
 Nuclear repulsion after empirical dispersion term =      776.3321313075 Hartrees.
 Leave Link  301 at Mon Aug  7 13:12:53 2023, MaxMem=   458752000 cpu:         0.0
 (Enter /opt/apps/apps/binapps/gaussian/g09d01_em64t/g09/l302.exe)
 NPDir=0 NMtPBC=     1 NCelOv=     1 NCel=       1 NClECP=     1 NCelD=      1
         NCelK=      1 NCelE2=     1 NClLst=     1 CellRange=     0.0.
 One-electron integrals computed using PRISM.
 NBasis=   211 RedAO= T EigKep=  4.43D-04  NBF=   211
 NBsUse=   211 1.00D-06 EigRej= -1.00D+00 NBFU=   211
 Precomputing XC quadrature grid using
 IXCGrd= 4 IRadAn=           5 IRanWt=          -1 IRanGd=           0 AccXCQ= 0.00D+00.
 Generated NRdTot=       0 NPtTot=           0 NUsed=           0 NTot=          32
 NSgBfM=   210   210   210   210   210 MxSgAt=    21 MxSgA2=    21.
 Leave Link  302 at Mon Aug  7 13:12:54 2023, MaxMem=   458752000 cpu:         0.6
 (Enter /opt/apps/apps/binapps/gaussian/g09d01_em64t/g09/l303.exe)
 DipDrv:  MaxL=1.
 Leave Link  303 at Mon Aug  7 13:12:54 2023, MaxMem=   458752000 cpu:         0.0
 (Enter /opt/apps/apps/binapps/gaussian/g09d01_em64t/g09/l401.exe)
 ExpMin= 1.61D-01 ExpMax= 5.48D+03 ExpMxC= 8.25D+02 IAcc=3 IRadAn=         5 AccDes= 0.00D+00
 Harris functional with IExCor=  402 and IRadAn=       5 diagonalized for initial guess.
 HarFok:  IExCor=  402 AccDes= 0.00D+00 IRadAn=         5 IDoV= 1 UseB2=F ITyADJ=14
 ICtDFT=  3500011 ScaDFX=  1.000000  1.000000  1.000000  1.000000
 FoFCou: FMM=F IPFlag=           0 FMFlag=      100000 FMFlg1=           0
         NFxFlg=           0 DoJE=T BraDBF=F KetDBF=T FulRan=T
         wScrn=  0.000000 ICntrl=     500 IOpCl=  0 I1Cent=   200000004 NGrid=           0
         NMat0=    1 NMatS0=      1 NMatT0=    0 NMatD0=    1 NMtDS0=    0 NMtDT0=    0
 Petite list used in FoFCou.
 Harris En= -648.676697686857    
 JPrj=0 DoOrth=F DoCkMO=F.
 Leave Link  401 at Mon Aug  7 13:13:01 2023, MaxMem=   458752000 cpu:         7.5
 (Enter /opt/apps/apps/binapps/gaussian/g09d01_em64t/g09/l502.exe)
 Closed shell SCF:
 Using DIIS extrapolation, IDIIS=  1040.
 Integral symmetry usage will be decided dynamically.
 Keep R1 ints in memory in canonical form, NReq=255049085.
 IVT=      154966 IEndB=      154966 NGot=   458752000 MDV=   208466874
 LenX=   208466874 LenY=   208421912
 Requested convergence on RMS density matrix=1.00D-08 within 128 cycles.
 Requested convergence on MAX density matrix=1.00D-06.
 Requested convergence on             energy=1.00D-06.
 No special actions if energy rises.
 FoFCou: FMM=F IPFlag=           0 FMFlag=           0 FMFlg1=           0
         NFxFlg=           0 DoJE=F BraDBF=F KetDBF=F FulRan=T
         wScrn=  0.000000 ICntrl=     600 IOpCl=  0 I1Cent=           0 NGrid=           0
         NMat0=    1 NMatS0=  22366 NMatT0=    0 NMatD0=    1 NMtDS0=    0 NMtDT0=    0
 Symmetry not used in FoFCou.
 Integral accuracy reduced to 1.0D-05 until final iterations.

 Cycle   1  Pass 0  IDiag  1:
 E= -648.267334415257    
 DIIS: error= 3.06D-02 at cycle   1 NSaved=   1.
 NSaved= 1 IEnMin= 1 EnMin= -648.267334415257     IErMin= 1 ErrMin= 3.06D-02
 ErrMax= 3.06D-02  0.00D+00 EMaxC= 1.00D-01 BMatC= 4.30D-01 BMatP= 4.30D-01
 IDIUse=3 WtCom= 6.94D-01 WtEn= 3.06D-01
 Coeff-Com:  0.100D+01
 Coeff-En:   0.100D+01
 Coeff:      0.100D+01
 Gap=     0.232 Goal=   None    Shift=    0.000
 GapD=    0.232 DampG=1.000 DampE=0.500 DampFc=0.5000 IDamp=-1.
 Damping current iteration by 5.00D-01
 RMSDP=8.10D-03 MaxDP=2.34D-01              OVMax= 2.77D-01

 Cycle   2  Pass 0  IDiag  1:
 E= -648.298258417369     Delta-E=       -0.030924002112 Rises=F Damp=T
 DIIS: error= 1.71D-02 at cycle   2 NSaved=   2.
 NSaved= 2 IEnMin= 2 EnMin= -648.298258417369     IErMin= 2 ErrMin= 1.71D-02
 ErrMax= 1.71D-02  0.00D+00 EMaxC= 1.00D-01 BMatC= 1.20D-01 BMatP= 4.30D-01
 IDIUse=3 WtCom= 8.29D-01 WtEn= 1.71D-01
 Coeff-Com:  0.305D+00 0.695D+00
 Coeff-En:   0.465D+00 0.535D+00
 Coeff:      0.332D+00 0.668D+00
 Gap=     0.172 Goal=   None    Shift=    0.000
 RMSDP=2.81D-03 MaxDP=8.10D-02 DE=-3.09D-02 OVMax= 2.54D-01

 Cycle   3  Pass 0  IDiag  1:
 E= -648.575828442545     Delta-E=       -0.277570025176 Rises=F Damp=F
 DIIS: error= 1.51D-02 at cycle   3 NSaved=   3.
 NSaved= 3 IEnMin= 3 EnMin= -648.575828442545     IErMin= 3 ErrMin= 1.51D-02
 ErrMax= 1.51D-02  0.00D+00 EMaxC= 1.00D-01 BMatC= 7.48D-02 BMatP= 1.20D-01
 IDIUse=3 WtCom= 8.49D-01 WtEn= 1.51D-01
 Coeff-Com:  0.126D+00 0.428D+00 0.446D+00
 Coeff-En:   0.000D+00 0.000D+00 0.100D+01
 Coeff:      0.107D+00 0.363D+00 0.530D+00
 Gap=     0.195 Goal=   None    Shift=    0.000
 RMSDP=1.66D-03 MaxDP=4.65D-02 DE=-2.78D-01 OVMax= 7.27D-02

 Cycle   4  Pass 0  IDiag  1:
 E= -648.630285769375     Delta-E=       -0.054457326830 Rises=F Damp=F
 DIIS: error= 7.59D-03 at cycle   4 NSaved=   4.
 NSaved= 4 IEnMin= 4 EnMin= -648.630285769375     IErMin= 4 ErrMin= 7.59D-03
 ErrMax= 7.59D-03  0.00D+00 EMaxC= 1.00D-01 BMatC= 1.52D-02 BMatP= 7.48D-02
 IDIUse=3 WtCom= 9.24D-01 WtEn= 7.59D-02
 Coeff-Com:  0.310D-01 0.732D-01 0.313D+00 0.583D+00
 Coeff-En:   0.000D+00 0.000D+00 0.182D+00 0.818D+00
 Coeff:      0.287D-01 0.677D-01 0.303D+00 0.601D+00
 Gap=     0.196 Goal=   None    Shift=    0.000
 RMSDP=5.59D-04 MaxDP=1.70D-02 DE=-5.45D-02 OVMax= 2.82D-02

 Cycle   5  Pass 0  IDiag  1:
 E= -648.641607752313     Delta-E=       -0.011321982938 Rises=F Damp=F
 DIIS: error= 1.74D-03 at cycle   5 NSaved=   5.
 NSaved= 5 IEnMin= 5 EnMin= -648.641607752313     IErMin= 5 ErrMin= 1.74D-03
 ErrMax= 1.74D-03  0.00D+00 EMaxC= 1.00D-01 BMatC= 7.75D-04 BMatP= 1.52D-02
 IDIUse=3 WtCom= 9.83D-01 WtEn= 1.74D-02
 Coeff-Com:  0.601D-02 0.740D-03 0.122D+00 0.329D+00 0.542D+00
 Coeff-En:   0.000D+00 0.000D+00 0.000D+00 0.000D+00 0.100D+01
 Coeff:      0.590D-02 0.727D-03 0.120D+00 0.323D+00 0.550D+00
 Gap=     0.187 Goal=   None    Shift=    0.000
 RMSDP=1.53D-04 MaxDP=4.99D-03 DE=-1.13D-02 OVMax= 7.07D-03

 Cycle   6  Pass 0  IDiag  1:
 E= -648.642190248978     Delta-E=       -0.000582496664 Rises=F Damp=F
 DIIS: error= 4.58D-04 at cycle   6 NSaved=   6.
 NSaved= 6 IEnMin= 6 EnMin= -648.642190248978     IErMin= 6 ErrMin= 4.58D-04
 ErrMax= 4.58D-04  0.00D+00 EMaxC= 1.00D-01 BMatC= 8.18D-05 BMatP= 7.75D-04
 IDIUse=3 WtCom= 9.95D-01 WtEn= 4.58D-03
 Coeff-Com:  0.123D-02-0.525D-02 0.430D-01 0.127D+00 0.316D+00 0.518D+00
 Coeff-En:   0.000D+00 0.000D+00 0.000D+00 0.000D+00 0.576D-01 0.942D+00
 Coeff:      0.123D-02-0.523D-02 0.428D-01 0.126D+00 0.315D+00 0.520D+00
 Gap=     0.188 Goal=   None    Shift=    0.000
 RMSDP=4.88D-05 MaxDP=1.52D-03 DE=-5.82D-04 OVMax= 3.26D-03

 Cycle   7  Pass 0  IDiag  1:
 E= -648.642259867395     Delta-E=       -0.000069618417 Rises=F Damp=F
 DIIS: error= 1.28D-04 at cycle   7 NSaved=   7.
 NSaved= 7 IEnMin= 7 EnMin= -648.642259867395     IErMin= 7 ErrMin= 1.28D-04
 ErrMax= 1.28D-04  0.00D+00 EMaxC= 1.00D-01 BMatC= 5.60D-06 BMatP= 8.18D-05
 IDIUse=3 WtCom= 9.99D-01 WtEn= 1.28D-03
 Coeff-Com:  0.335D-03-0.304D-02 0.127D-01 0.375D-01 0.125D+00 0.277D+00
 Coeff-Com:  0.550D+00
 Coeff-En:   0.000D+00 0.000D+00 0.000D+00 0.000D+00 0.000D+00 0.000D+00
 Coeff-En:   0.100D+01
 Coeff:      0.334D-03-0.304D-02 0.127D-01 0.375D-01 0.125D+00 0.277D+00
 Coeff:      0.551D+00
 Gap=     0.188 Goal=   None    Shift=    0.000
 RMSDP=1.40D-05 MaxDP=3.70D-04 DE=-6.96D-05 OVMax= 1.11D-03

 Cycle   8  Pass 0  IDiag  1:
 E= -648.642264836000     Delta-E=       -0.000004968606 Rises=F Damp=F
 DIIS: error= 4.62D-05 at cycle   8 NSaved=   8.
 NSaved= 8 IEnMin= 8 EnMin= -648.642264836000     IErMin= 8 ErrMin= 4.62D-05
 ErrMax= 4.62D-05  0.00D+00 EMaxC= 1.00D-01 BMatC= 6.85D-07 BMatP= 5.60D-06
 IDIUse=1 WtCom= 1.00D+00 WtEn= 0.00D+00
 Coeff-Com:  0.142D-03-0.124D-02 0.296D-02 0.783D-02 0.401D-01 0.102D+00
 Coeff-Com:  0.307D+00 0.541D+00
 Coeff:      0.142D-03-0.124D-02 0.296D-02 0.783D-02 0.401D-01 0.102D+00
 Coeff:      0.307D+00 0.541D+00
 Gap=     0.188 Goal=   None    Shift=    0.000
 RMSDP=5.02D-06 MaxDP=1.58D-04 DE=-4.97D-06 OVMax= 4.26D-04

 Initial convergence to 1.0D-05 achieved.  Increase integral accuracy.
 Cycle   9  Pass 1  IDiag  1:
 E= -648.642260140294     Delta-E=        0.000004695706 Rises=F Damp=F
 DIIS: error= 1.44D-05 at cycle   1 NSaved=   1.
 NSaved= 1 IEnMin= 1 EnMin= -648.642260140294     IErMin= 1 ErrMin= 1.44D-05
 ErrMax= 1.44D-05  0.00D+00 EMaxC= 1.00D-01 BMatC= 6.39D-08 BMatP= 6.39D-08
 IDIUse=1 WtCom= 1.00D+00 WtEn= 0.00D+00
 Coeff-Com:  0.100D+01
 Coeff:      0.100D+01
 Gap=     0.188 Goal=   None    Shift=    0.000
 RMSDP=5.02D-06 MaxDP=1.58D-04 DE= 4.70D-06 OVMax= 2.34D-04

 Cycle  10  Pass 1  IDiag  1:
 E= -648.642260028913     Delta-E=        0.000000111381 Rises=F Damp=F
 DIIS: error= 2.59D-05 at cycle   2 NSaved=   2.
 NSaved= 2 IEnMin= 1 EnMin= -648.642260140294     IErMin= 1 ErrMin= 1.44D-05
 ErrMax= 2.59D-05  0.00D+00 EMaxC= 1.00D-01 BMatC= 1.87D-07 BMatP= 6.39D-08
 IDIUse=1 WtCom= 1.00D+00 WtEn= 0.00D+00
 Coeff-Com:  0.638D+00 0.362D+00
 Coeff:      0.638D+00 0.362D+00
 Gap=     0.188 Goal=   None    Shift=    0.000
 RMSDP=2.16D-06 MaxDP=6.22D-05 DE= 1.11D-07 OVMax= 1.67D-04

 Cycle  11  Pass 1  IDiag  1:
 E= -648.642260202968     Delta-E=       -0.000000174055 Rises=F Damp=F
 DIIS: error= 4.48D-06 at cycle   3 NSaved=   3.
 NSaved= 3 IEnMin= 3 EnMin= -648.642260202968     IErMin= 3 ErrMin= 4.48D-06
 ErrMax= 4.48D-06  0.00D+00 EMaxC= 1.00D-01 BMatC= 5.70D-09 BMatP= 6.39D-08
 IDIUse=1 WtCom= 1.00D+00 WtEn= 0.00D+00
 Coeff-Com:  0.266D+00 0.196D+00 0.538D+00
 Coeff:      0.266D+00 0.196D+00 0.538D+00
 Gap=     0.188 Goal=   None    Shift=    0.000
 RMSDP=4.74D-07 MaxDP=1.81D-05 DE=-1.74D-07 OVMax= 2.25D-05

 Cycle  12  Pass 1  IDiag  1:
 E= -648.642260206643     Delta-E=       -0.000000003675 Rises=F Damp=F
 DIIS: error= 1.82D-06 at cycle   4 NSaved=   4.
 NSaved= 4 IEnMin= 4 EnMin= -648.642260206643     IErMin= 4 ErrMin= 1.82D-06
 ErrMax= 1.82D-06  0.00D+00 EMaxC= 1.00D-01 BMatC= 1.25D-09 BMatP= 5.70D-09
 IDIUse=1 WtCom= 1.00D+00 WtEn= 0.00D+00
 Coeff-Com:  0.349D-01 0.512D-01 0.340D+00 0.574D+00
 Coeff:      0.349D-01 0.512D-01 0.340D+00 0.574D+00
 Gap=     0.188 Goal=   None    Shift=    0.000
 RMSDP=1.91D-07 MaxDP=6.67D-06 DE=-3.67D-09 OVMax= 1.26D-05

 Cycle  13  Pass 1  IDiag  1:
 E= -648.642260207575     Delta-E=       -0.000000000932 Rises=F Damp=F
 DIIS: error= 7.02D-07 at cycle   5 NSaved=   5.
 NSaved= 5 IEnMin= 5 EnMin= -648.642260207575     IErMin= 5 ErrMin= 7.02D-07
 ErrMax= 7.02D-07  0.00D+00 EMaxC= 1.00D-01 BMatC= 1.62D-10 BMatP= 1.25D-09
 IDIUse=1 WtCom= 1.00D+00 WtEn= 0.00D+00
 Coeff-Com: -0.819D-02 0.105D-01 0.143D+00 0.349D+00 0.506D+00
 Coeff:     -0.819D-02 0.105D-01 0.143D+00 0.349D+00 0.506D+00
 Gap=     0.188 Goal=   None    Shift=    0.000
 RMSDP=7.31D-08 MaxDP=1.82D-06 DE=-9.32D-10 OVMax= 5.73D-06

 Cycle  14  Pass 1  IDiag  1:
 E= -648.642260207723     Delta-E=       -0.000000000148 Rises=F Damp=F
 DIIS: error= 1.68D-07 at cycle   6 NSaved=   6.
 NSaved= 6 IEnMin= 6 EnMin= -648.642260207723     IErMin= 6 ErrMin= 1.68D-07
 ErrMax= 1.68D-07  0.00D+00 EMaxC= 1.00D-01 BMatC= 1.44D-11 BMatP= 1.62D-10
 IDIUse=1 WtCom= 1.00D+00 WtEn= 0.00D+00
 Coeff-Com: -0.738D-02 0.237D-02 0.536D-01 0.158D+00 0.298D+00 0.496D+00
 Coeff:     -0.738D-02 0.237D-02 0.536D-01 0.158D+00 0.298D+00 0.496D+00
 Gap=     0.188 Goal=   None    Shift=    0.000
 RMSDP=2.17D-08 MaxDP=6.72D-07 DE=-1.48D-10 OVMax= 1.41D-06

 Cycle  15  Pass 1  IDiag  1:
 E= -648.642260207749     Delta-E=       -0.000000000026 Rises=F Damp=F
 DIIS: error= 7.23D-08 at cycle   7 NSaved=   7.
 NSaved= 7 IEnMin= 7 EnMin= -648.642260207749     IErMin= 7 ErrMin= 7.23D-08
 ErrMax= 7.23D-08  0.00D+00 EMaxC= 1.00D-01 BMatC= 1.58D-12 BMatP= 1.44D-11
 IDIUse=1 WtCom= 1.00D+00 WtEn= 0.00D+00
 Coeff-Com: -0.346D-02 0.748D-04 0.117D-01 0.472D-01 0.108D+00 0.291D+00
 Coeff-Com:  0.546D+00
 Coeff:     -0.346D-02 0.748D-04 0.117D-01 0.472D-01 0.108D+00 0.291D+00
 Coeff:      0.546D+00
 Gap=     0.188 Goal=   None    Shift=    0.000
 RMSDP=6.22D-09 MaxDP=1.78D-07 DE=-2.57D-11 OVMax= 3.48D-07

 SCF Done:  E(RB3LYP) =  -648.642260208     A.U. after   15 cycles
            NFock= 15  Conv=0.62D-08     -V/T= 2.0088
 KE= 6.429823003817D+02 PE=-3.066633815280D+03 EE= 9.986771233829D+02
 Leave Link  502 at Mon Aug  7 13:14:53 2023, MaxMem=   458752000 cpu:       111.2
 (Enter /opt/apps/apps/binapps/gaussian/g09d01_em64t/g09/l601.exe)
 Copying SCF densities to generalized density rwf, IOpCl= 0 IROHF=0.

 **********************************************************************

            Population analysis using the SCF density.

 **********************************************************************

 Orbital symmetries:
       Occupied  (A) (A) (A) (A) (A) (A) (A) (A) (A) (A) (A) (A)
                 (A) (A) (A) (A) (A) (A) (A) (A) (A) (A) (A) (A)
                 (A) (A) (A) (A) (A) (A) (A) (A) (A) (A) (A) (A)
                 (A) (A) (A) (A) (A) (A) (A) (A) (A) (A) (A)
       Virtual   (A) (A) (A) (A) (A) (A) (A) (A) (A) (A) (A) (A)
                 (A) (A) (A) (A) (A) (A) (A) (A) (A) (A) (A) (A)
                 (A) (A) (A) (A) (A) (A) (A) (A) (A) (A) (A) (A)
                 (A) (A) (A) (A) (A) (A) (A) (A) (A) (A) (A) (A)
                 (A) (A) (A) (A) (A) (A) (A) (A) (A) (A) (A) (A)
                 (A) (A) (A) (A) (A) (A) (A) (A) (A) (A) (A) (A)
                 (A) (A) (A) (A) (A) (A) (A) (A) (A) (A) (A) (A)
                 (A) (A) (A) (A) (A) (A) (A) (A) (A) (A) (A) (A)
                 (A) (A) (A) (A) (A) (A) (A) (A) (A) (A) (A) (A)
                 (A) (A) (A) (A) (A) (A) (A) (A) (A) (A) (A) (A)
                 (A) (A) (A) (A) (A) (A) (A) (A) (A) (A) (A) (A)
                 (A) (A) (A) (A) (A) (A) (A) (A) (A) (A) (A) (A)
                 (A) (A) (A) (A) (A) (A) (A) (A) (A) (A) (A) (A)
                 (A) (A) (A) (A) (A) (A) (A) (A)
 The electronic state is 1-A.
 Alpha  occ. eigenvalues --  -19.24107 -19.19374 -19.18121 -19.11929 -10.36012
 Alpha  occ. eigenvalues --  -10.31395 -10.28966 -10.23302 -10.22715 -10.21514
 Alpha  occ. eigenvalues --  -10.21443 -10.21072 -10.21010  -1.16326  -1.11236
 Alpha  occ. eigenvalues --   -1.08346  -1.00514  -0.88005  -0.80144  -0.78345
 Alpha  occ. eigenvalues --   -0.74871  -0.68581  -0.64979  -0.60151  -0.59467
 Alpha  occ. eigenvalues --   -0.54435  -0.52383  -0.51974  -0.51578  -0.48962
 Alpha  occ. eigenvalues --   -0.47863  -0.45794  -0.45161  -0.43641  -0.43424
 Alpha  occ. eigenvalues --   -0.43192  -0.40830  -0.40251  -0.39498  -0.38352
 Alpha  occ. eigenvalues --   -0.36383  -0.34264  -0.31005  -0.30624  -0.27534
 Alpha  occ. eigenvalues --   -0.26403  -0.25534
 Alpha virt. eigenvalues --   -0.06778  -0.04392  -0.02481   0.05825   0.06885
 Alpha virt. eigenvalues --    0.08701   0.10633   0.12183   0.13328   0.13664
 Alpha virt. eigenvalues --    0.15080   0.16025   0.17677   0.18872   0.21986
 Alpha virt. eigenvalues --    0.23869   0.25975   0.28316   0.29880   0.30886
 Alpha virt. eigenvalues --    0.31604   0.32956   0.37371   0.39131   0.47514
 Alpha virt. eigenvalues --    0.48239   0.49110   0.50253   0.51194   0.53118
 Alpha virt. eigenvalues --    0.53488   0.54957   0.55310   0.55979   0.57116
 Alpha virt. eigenvalues --    0.58331   0.59595   0.60247   0.60702   0.62512
 Alpha virt. eigenvalues --    0.63462   0.65863   0.66426   0.67719   0.68831
 Alpha virt. eigenvalues --    0.71039   0.71836   0.74996   0.79122   0.80052
 Alpha virt. eigenvalues --    0.80641   0.81331   0.82311   0.83842   0.84723
 Alpha virt. eigenvalues --    0.86135   0.87115   0.88548   0.90595   0.91274
 Alpha virt. eigenvalues --    0.95540   0.96645   0.97533   0.99347   1.00958
 Alpha virt. eigenvalues --    1.01861   1.05069   1.06646   1.07037   1.07785
 Alpha virt. eigenvalues --    1.08748   1.13039   1.13775   1.15998   1.21237
 Alpha virt. eigenvalues --    1.22784   1.23842   1.26774   1.30839   1.32462
 Alpha virt. eigenvalues --    1.33748   1.36035   1.39594   1.42625   1.43149
 Alpha virt. eigenvalues --    1.44085   1.45921   1.48738   1.50089   1.57022
 Alpha virt. eigenvalues --    1.61123   1.62844   1.64816   1.68408   1.69845
 Alpha virt. eigenvalues --    1.70907   1.73390   1.75004   1.77230   1.78157
 Alpha virt. eigenvalues --    1.80459   1.83935   1.84784   1.85112   1.87778
 Alpha virt. eigenvalues --    1.88124   1.88981   1.89969   1.92963   1.94613
 Alpha virt. eigenvalues --    1.96101   1.97886   2.03543   2.06475   2.08838
 Alpha virt. eigenvalues --    2.11067   2.13016   2.14338   2.15075   2.16523
 Alpha virt. eigenvalues --    2.17607   2.23256   2.25272   2.25817   2.29920
 Alpha virt. eigenvalues --    2.32385   2.36616   2.42157   2.43751   2.49403
 Alpha virt. eigenvalues --    2.52696   2.54697   2.57717   2.59320   2.61690
 Alpha virt. eigenvalues --    2.63266   2.67896   2.68963   2.71490   2.75834
 Alpha virt. eigenvalues --    2.76793   2.78852   2.84381   2.89938   2.93222
 Alpha virt. eigenvalues --    2.95783   3.01669   3.09312   3.14534   3.27859
 Alpha virt. eigenvalues --    3.41633   3.87740   3.94877   4.03905   4.07194
 Alpha virt. eigenvalues --    4.10786   4.12078   4.27857   4.29776   4.37973
 Alpha virt. eigenvalues --    4.41446   4.43523   4.51138   4.76454
          Condensed to atoms (all electrons):
               1          2          3          4          5          6
     1  C    4.990660  -0.040060   0.474442  -0.028299   0.000005   0.503477
     2  C   -0.040060   4.942396  -0.030390   0.544187   0.000282  -0.043139
     3  C    0.474442  -0.030390   4.936366   0.540352   0.000000  -0.026116
     4  C   -0.028299   0.544187   0.540352   4.826093  -0.000001  -0.033555
     5  C    0.000005   0.000282   0.000000  -0.000001   5.207122  -0.000117
     6  C    0.503477  -0.043139  -0.026116  -0.033555  -0.000117   5.165731
     7  C   -0.050297   0.513267  -0.039777  -0.024978   0.003317   0.457493
     8  O    0.006053  -0.000051   0.000943  -0.000011   0.000000  -0.100660
     9  O   -0.000011   0.001826   0.000001  -0.000098  -0.077474   0.000056
    10  O    0.006320   0.000129  -0.000057  -0.000007  -0.001047  -0.089367
    11  C   -0.028860   0.003750   0.005751   0.000081  -0.000092   0.250782
    12  C   -0.000006  -0.001186   0.000026   0.000164   0.385548   0.000859
    13  O    0.003174  -0.052150   0.000149   0.004559  -0.082073  -0.049702
    14  H    0.000017   0.001339  -0.000088  -0.000029   0.000536   0.006957
    15  H    0.361625   0.000329  -0.037425   0.003864   0.000000  -0.040897
    16  H    0.000611   0.351083   0.004470  -0.033811   0.000032   0.003848
    17  H   -0.037475   0.004749   0.357569  -0.040185   0.000000   0.003578
    18  H    0.004321  -0.039703  -0.041383   0.357312   0.000000   0.000548
    19  H    0.000000   0.000007   0.000000   0.000000   0.365960   0.000001
    20  H   -0.000004   0.000014   0.000000   0.000001   0.365500   0.000052
    21  H    0.000000  -0.000023   0.000000   0.000000   0.340898   0.000013
               7          8          9         10         11         12
     1  C   -0.050297   0.006053  -0.000011   0.006320  -0.028860  -0.000006
     2  C    0.513267  -0.000051   0.001826   0.000129   0.003750  -0.001186
     3  C   -0.039777   0.000943   0.000001  -0.000057   0.005751   0.000026
     4  C   -0.024978  -0.000011  -0.000098  -0.000007   0.000081   0.000164
     5  C    0.003317   0.000000  -0.077474  -0.001047  -0.000092   0.385548
     6  C    0.457493  -0.100660   0.000056  -0.089367   0.250782   0.000859
     7  C    4.753676   0.002814   0.008702  -0.001456  -0.027174  -0.009410
     8  O    0.002814   8.033783   0.000000  -0.085216   0.593931   0.000002
     9  O    0.008702   0.000000   7.945244  -0.000015   0.000033   0.558057
    10  O   -0.001456  -0.085216  -0.000015   8.284022   0.274035   0.000660
    11  C   -0.027174   0.593931   0.000033   0.274035   4.418555   0.000135
    12  C   -0.009410   0.000002   0.558057   0.000660   0.000135   4.419649
    13  O    0.152981  -0.000009  -0.087363  -0.021875  -0.004819   0.174550
    14  H   -0.015257   0.003271   0.000256   0.197805  -0.035229  -0.002900
    15  H    0.004030   0.014669   0.000000   0.000359  -0.006075   0.000000
    16  H   -0.039073   0.000000   0.001437   0.000004  -0.000063   0.006131
    17  H    0.000830   0.000001   0.000000   0.000000  -0.000115   0.000000
    18  H    0.005026   0.000000  -0.000001   0.000000   0.000006  -0.000016
    19  H   -0.000051   0.000000  -0.000249   0.000003   0.000000  -0.021880
    20  H   -0.000256   0.000002  -0.004697   0.004020   0.000047  -0.026247
    21  H   -0.000147   0.000000   0.004377   0.000006  -0.000001  -0.024897
              13         14         15         16         17         18
     1  C    0.003174   0.000017   0.361625   0.000611  -0.037475   0.004321
     2  C   -0.052150   0.001339   0.000329   0.351083   0.004749  -0.039703
     3  C    0.000149  -0.000088  -0.037425   0.004470   0.357569  -0.041383
     4  C    0.004559  -0.000029   0.003864  -0.033811  -0.040185   0.357312
     5  C   -0.082073   0.000536   0.000000   0.000032   0.000000   0.000000
     6  C   -0.049702   0.006957  -0.040897   0.003848   0.003578   0.000548
     7  C    0.152981  -0.015257   0.004030  -0.039073   0.000830   0.005026
     8  O   -0.000009   0.003271   0.014669   0.000000   0.000001   0.000000
     9  O   -0.087363   0.000256   0.000000   0.001437   0.000000  -0.000001
    10  O   -0.021875   0.197805   0.000359   0.000004   0.000000   0.000000
    11  C   -0.004819  -0.035229  -0.006075  -0.000063  -0.000115   0.000006
    12  C    0.174550  -0.002900   0.000000   0.006131   0.000000  -0.000016
    13  O    8.471501   0.052699  -0.000026  -0.006594   0.000002  -0.000091
    14  H    0.052699   0.345285  -0.000098  -0.000010   0.000000   0.000001
    15  H   -0.000026  -0.000098   0.517965   0.000012  -0.003782  -0.000147
    16  H   -0.006594  -0.000010   0.000012   0.564167  -0.000159  -0.006484
    17  H    0.000002   0.000000  -0.003782  -0.000159   0.579029  -0.005896
    18  H   -0.000091   0.000001  -0.000147  -0.006484  -0.005896   0.583435
    19  H    0.002665   0.000047   0.000000   0.000003   0.000000   0.000000
    20  H   -0.001686   0.000511   0.000000   0.000002   0.000000   0.000000
    21  H    0.003822   0.000112   0.000000  -0.000007   0.000000   0.000000
              19         20         21
     1  C    0.000000  -0.000004   0.000000
     2  C    0.000007   0.000014  -0.000023
     3  C    0.000000   0.000000   0.000000
     4  C    0.000000   0.000001   0.000000
     5  C    0.365960   0.365500   0.340898
     6  C    0.000001   0.000052   0.000013
     7  C   -0.000051  -0.000256  -0.000147
     8  O    0.000000   0.000002   0.000000
     9  O   -0.000249  -0.004697   0.004377
    10  O    0.000003   0.004020   0.000006
    11  C    0.000000   0.000047  -0.000001
    12  C   -0.021880  -0.026247  -0.024897
    13  O    0.002665  -0.001686   0.003822
    14  H    0.000047   0.000511   0.000112
    15  H    0.000000   0.000000   0.000000
    16  H    0.000003   0.000002  -0.000007
    17  H    0.000000   0.000000   0.000000
    18  H    0.000000   0.000000   0.000000
    19  H    0.503738  -0.020530  -0.023677
    20  H   -0.020530   0.493535  -0.021506
    21  H   -0.023677  -0.021506   0.549058
 Mulliken charges:
               1
     1  C   -0.165691
     2  C   -0.156658
     3  C   -0.144834
     4  C   -0.115639
     5  C   -0.508395
     6  C   -0.009840
     7  C    0.305740
     8  O   -0.469522
     9  O   -0.350079
    10  O   -0.568324
    11  C    0.555320
    12  C    0.540760
    13  O   -0.559714
    14  H    0.444776
    15  H    0.185594
    16  H    0.154402
    17  H    0.141854
    18  H    0.143072
    19  H    0.193963
    20  H    0.211243
    21  H    0.171972
 Sum of Mulliken charges =   0.00000
 Mulliken charges with hydrogens summed into heavy atoms:
               1
     1  C    0.019903
     2  C   -0.002256
     3  C   -0.002981
     4  C    0.027433
     5  C    0.068782
     6  C   -0.009840
     7  C    0.305740
     8  O   -0.469522
     9  O   -0.350079
    10  O   -0.123548
    11  C    0.555320
    12  C    0.540760
    13  O   -0.559714
 Electronic spatial extent (au):  <R**2>=           2383.4233
 Charge=              0.0000 electrons
 Dipole moment (field-independent basis, Debye):
    X=             -2.5897    Y=             -3.8254    Z=             -1.4913  Tot=              4.8543
 Quadrupole moment (field-independent basis, Debye-Ang):
   XX=            -65.2406   YY=            -82.1054   ZZ=            -75.5547
   XY=            -11.8380   XZ=              4.3582   YZ=              2.0082
 Traceless Quadrupole moment (field-independent basis, Debye-Ang):
   XX=              9.0596   YY=             -7.8052   ZZ=             -1.2545
   XY=            -11.8380   XZ=              4.3582   YZ=              2.0082
 Octapole moment (field-independent basis, Debye-Ang**2):
  XXX=            -33.5443  YYY=            -44.2493  ZZZ=              0.8518  XYY=            -15.4694
  XXY=             -6.4639  XXZ=             -4.0210  XZZ=             -4.5343  YZZ=             11.4006
  YYZ=             -5.5222  XYZ=             -8.2731
 Hexadecapole moment (field-independent basis, Debye-Ang**3):
 XXXX=          -1606.4150 YYYY=          -1178.4199 ZZZZ=           -128.8104 XXXY=            -64.4753
 XXXZ=             28.9454 YYYX=            -53.0339 YYYZ=              2.8517 ZZZX=              1.5397
 ZZZY=             -3.1102 XXYY=           -517.7600 XXZZ=           -329.3035 YYZZ=           -215.2780
 XXYZ=              6.8186 YYXZ=              1.8457 ZZXY=              8.8100
 N-N= 7.763321313075D+02 E-N=-3.066633816629D+03  KE= 6.429823003817D+02
 No NMR shielding tensors so no spin-rotation constants.
 Leave Link  601 at Mon Aug  7 13:14:53 2023, MaxMem=   458752000 cpu:         0.2
 (Enter /opt/apps/apps/binapps/gaussian/g09d01_em64t/g09/l602.exe)
 FitSet:  NAtFit=    21 NAtPot=    21 NAtFrz=     0 MDM=    25 TotChg=   0.00000
 Merz-Kollman atomic radii used.

 **********************************************************************

            Electrostatic Properties Using The SCF Density

 **********************************************************************

       Atomic Center    1 is at   2.423438 -0.183414  0.191481
       Atomic Center    2 is at   0.229978 -1.909548 -0.317194
       Atomic Center    3 is at   2.572818 -1.595336  0.087728
       Atomic Center    4 is at   1.479960 -2.410686 -0.145682
       Atomic Center    5 is at  -3.455746  0.593978 -0.159576
       Atomic Center    6 is at   1.157257  0.335674 -0.027508
       Atomic Center    7 is at   0.038408 -0.504826 -0.259829
       Atomic Center    8 is at   2.013990  2.573959  0.194051
       Atomic Center    9 is at  -2.468955 -1.132197  0.980245
       Atomic Center   10 is at  -0.151504  2.358175 -0.099680
       Atomic Center   11 is at   1.039923  1.856476  0.070187
       Atomic Center   12 is at  -2.428320 -0.526323 -0.020588
       Atomic Center   13 is at  -1.209741 -0.092685 -0.530693
       Atomic Center   14 is at  -0.572899  1.467239 -0.409244
       Atomic Center   15 is at   3.259954  0.430733  0.499391
       Atomic Center   16 is at  -0.636851 -2.586273 -0.508179
       Atomic Center   17 is at   3.562559 -2.056632  0.288539
       Atomic Center   18 is at   1.609731 -3.495365 -0.208598
       Atomic Center   19 is at  -4.409326  0.386037  0.402428
       Atomic Center   20 is at  -2.931806  1.455312  0.303944
       Atomic Center   21 is at  -3.697979  0.804955 -1.233773
    1046 points will be used for fitting atomic charges
 Fitting point charges to electrostatic potential
 Charges from ESP fit, RMS=   0.00128 RRMS=   0.06988:
 ESP charges:
               1
     1  C   -0.003185
     2  C   -0.315369
     3  C   -0.192376
     4  C   -0.009421
     5  C   -0.451438
     6  C   -0.345307
     7  C    0.448592
     8  O   -0.507506
     9  O   -0.415310
    10  O   -0.505729
    11  C    0.729548
    12  C    0.656951
    13  O   -0.405756
    14  H    0.316750
    15  H    0.132134
    16  H    0.166331
    17  H    0.129422
    18  H    0.114195
    19  H    0.150551
    20  H    0.191068
    21  H    0.115854
 Sum of ESP charges =   0.00000
 ESP charges with hydrogens summed into heavy atoms:
               1
     1  C    0.128949
     2  C   -0.149038
     3  C   -0.062954
     4  C    0.104775
     5  C    0.006035
     6  C   -0.345307
     7  C    0.448592
     8  O   -0.507506
     9  O   -0.415310
    10  O   -0.188979
    11  C    0.729548
    12  C    0.656951
    13  O   -0.405756
 Charge=   0.00000 Dipole=    -2.6009    -3.8664    -1.4995 Tot=     4.8952
 -----------------------------------------------------------------

              Electrostatic Properties (Atomic Units)

 -----------------------------------------------------------------
    Center     Electric         -------- Electric Field --------
               Potential          X             Y             Z
 -----------------------------------------------------------------
    1 Atom    -14.713286
    2 Atom    -14.714341
    3 Atom    -14.716956
    4 Atom    -14.719544
    5 Atom    -14.690414
    6 Atom    -14.700533
    7 Atom    -14.635530
    8 Atom    -22.347789
    9 Atom    -22.288352
   10 Atom    -22.271251
   11 Atom    -14.613192
   12 Atom    -14.568692
   13 Atom    -22.218289
   14 Atom     -0.937486
   15 Atom     -1.087436
   16 Atom     -1.074766
   17 Atom     -1.091891
   18 Atom     -1.089196
   19 Atom     -1.071986
   20 Atom     -1.063945
   21 Atom     -1.076702
 -----------------------------------------------------------------
 Leave Link  602 at Mon Aug  7 13:14:54 2023, MaxMem=   458752000 cpu:         0.2
 (Enter /opt/apps/apps/binapps/gaussian/g09d01_em64t/g09/l701.exe)
 Compute integral first derivatives.
 ... and contract with generalized density number  0.
 R6Disp: Adding Grimme-D3 dispersion energy 1st derivatives to the gradient.
 Leave Link  701 at Mon Aug  7 13:14:54 2023, MaxMem=   458752000 cpu:         0.2
 (Enter /opt/apps/apps/binapps/gaussian/g09d01_em64t/g09/l702.exe)
 L702 exits ... SP integral derivatives will be done elsewhere.
 Leave Link  702 at Mon Aug  7 13:14:54 2023, MaxMem=   458752000 cpu:         0.0
 (Enter /opt/apps/apps/binapps/gaussian/g09d01_em64t/g09/l703.exe)
 Compute integral first derivatives, UseDBF=F ICtDFT=           0.
 Integral derivatives from FoFJK, PRISM(SPDF).
 Calling FoFJK, ICntrl=      2127 FMM=F ISym2X=0 I1Cent= 0 IOpClX= 0 NMat=1 NMatS=1 NMatT=0.
 FoFJK:  IHMeth= 1 ICntrl=    2127 DoSepK=F KAlg= 0 I1Cent=   0 FoldK=F
 IRaf=         0 NMat=   1 IRICut=       1 DoRegI=T DoRafI=F ISym2E= 0.
 FoFCou: FMM=F IPFlag=           0 FMFlag=      100000 FMFlg1=         800
         NFxFlg=           0 DoJE=F BraDBF=F KetDBF=F FulRan=T
         wScrn=  0.000000 ICntrl=    2127 IOpCl=  0 I1Cent=           0 NGrid=           0
         NMat0=    1 NMatS0=      1 NMatT0=    0 NMatD0=    1 NMtDS0=    0 NMtDT0=    0
 Symmetry not used in FoFCou.
 Leave Link  703 at Mon Aug  7 13:15:24 2023, MaxMem=   458752000 cpu:        30.6
 (Enter /opt/apps/apps/binapps/gaussian/g09d01_em64t/g09/l716.exe)
 Dipole        =-1.01886074D+00-1.50502327D+00-5.86706322D-01
 ***** Axes restored to original set *****
 -------------------------------------------------------------------
 Center     Atomic                   Forces (Hartrees/Bohr)
 Number     Number              X              Y              Z
 -------------------------------------------------------------------
      1        6          -0.017413803    0.012918380   -0.045847831
      2        6          -0.024343480   -0.005057153    0.025848260
      3        6           0.034005554   -0.013711121    0.006658689
      4        6           0.006918129    0.010670894   -0.031139509
      5        6          -0.020437678    0.030362265    0.018071917
      6        6          -0.008692364   -0.015836737    0.032800878
      7        6           0.008460377    0.013488989   -0.075097905
      8        8          -0.001260437   -0.006163278   -0.008463330
      9        8          -0.021571718   -0.021362329   -0.077626893
     10        8          -0.062082607    0.018969252   -0.019275952
     11        6           0.054100710    0.011913671   -0.015391980
     12        6           0.031877561   -0.046779200    0.061712333
     13        8          -0.006325361    0.029677251    0.051595265
     14        1           0.000112687   -0.022159281    0.053309355
     15        1          -0.001041017    0.003377764    0.007776188
     16        1           0.018885215   -0.003549785    0.007364825
     17        1          -0.009750795    0.000749203    0.011951962
     18        1           0.003771407   -0.001828614    0.002967637
     19        1           0.018535711    0.014604039   -0.006427504
     20        1          -0.009924568    0.006340780    0.000523614
     21        1           0.006176479   -0.016624990   -0.001310017
 -------------------------------------------------------------------
 Cartesian Forces:  Max     0.077626893 RMS     0.027031366
 Z-matrix is all fixed cartesians, so copy forces.
 Leave Link  716 at Mon Aug  7 13:15:24 2023, MaxMem=   458752000 cpu:         0.0
 (Enter /opt/apps/apps/binapps/gaussian/g09d01_em64t/g09/l103.exe)

 GradGradGradGradGradGradGradGradGradGradGradGradGradGradGradGradGradGrad
 Berny optimization.
 Search for a local minimum.
 Step number   1 out of a maximum of    2
 All quantities printed in internal units (Hartrees-Bohrs-Radians)
 Second derivative matrix not updated -- first step.
 ITU=  0
     Eigenvalues ---    0.00064   0.00095   0.00142   0.00208   0.00375
     Eigenvalues ---    0.00742   0.01008   0.01265   0.01596   0.02607
     Eigenvalues ---    0.02750   0.03204   0.03824   0.04133   0.05003
     Eigenvalues ---    0.05457   0.06749   0.06894   0.07274   0.07501
     Eigenvalues ---    0.08512   0.08689   0.10242   0.11836   0.12492
     Eigenvalues ---    0.13136   0.13356   0.14231   0.14994   0.18744
     Eigenvalues ---    0.18990   0.22074   0.23770   0.30117   0.30453
     Eigenvalues ---    0.31673   0.37093   0.43447   0.45242   0.46730
     Eigenvalues ---    0.61200   0.67737   0.76323   0.83330   0.84255
     Eigenvalues ---    0.89412   0.93616   1.04462   1.13358   1.21467
     Eigenvalues ---    1.37690   1.46392   1.52791   1.56967   1.76779
     Eigenvalues ---    2.31667   2.63813
 Quadratic step=3.792D+00 exceeds max=3.000D-01 adjusted using Lamda=-3.017D-01.
 Angle between NR and scaled steps=  64.05 degrees.
 Angle between quadratic step and forces=  34.77 degrees.
 Linear search not attempted -- first point.
 TrRot=  0.000000  0.000000  0.000000  0.000000  0.000000  0.000000
 MatCor failed.
 Variable       Old X    -DE/DX   Delta X   Delta X   Delta X     New X
                                 (Linear)    (Quad)   (Total)
    X1       27.06936  -0.01741   0.00000  -0.02190  -0.02190  27.04746
    Y1       23.72745   0.01292   0.00000   0.00398   0.00398  23.73143
    Z1       21.21797  -0.04585   0.00000  -0.03450  -0.03450  21.18347
    X2       21.95450  -0.02434   0.00000  -0.01050  -0.01050  21.94400
    Y2       24.56919  -0.00506   0.00000   0.00113   0.00113  24.57032
    Z2       19.84859   0.02585   0.00000   0.00059   0.00059  19.84919
    X3       26.35149   0.03401   0.00000   0.02470   0.02470  26.37619
    Y3       24.52594  -0.01371   0.00000  -0.01694  -0.01694  24.50900
    Z3       18.75135   0.00666   0.00000  -0.00768  -0.00768  18.74367
    X4       23.83724   0.00692   0.00000   0.01178   0.01178  23.84902
    Y4       24.89131   0.01067   0.00000   0.00710   0.00710  24.89841
    Z4       18.13598  -0.03114   0.00000  -0.02537  -0.02537  18.11061
    X5       17.22554  -0.02044   0.00000  -0.02340  -0.02340  17.20213
    Y5       22.00999   0.03036   0.00000   0.02668   0.02668  22.03667
    Z5       26.33470   0.01807   0.00000   0.03889   0.03889  26.37359
    X6       25.16149  -0.00869   0.00000  -0.00801  -0.00801  25.15348
    Y6       23.47876  -0.01584   0.00000  -0.01263  -0.01263  23.46612
    Z6       22.99473   0.03280   0.00000   0.00971   0.00971  23.00445
    X7       22.58478   0.00846   0.00000  -0.00412  -0.00412  22.58067
    Y7       23.84305   0.01349   0.00000   0.02104   0.02104  23.86409
    Z7       22.35156  -0.07510   0.00000  -0.04301  -0.04301  22.30855
    X8       28.22728  -0.00126   0.00000   0.01912   0.01912  28.24640
    Y8       22.49014  -0.00616   0.00000  -0.01780  -0.01780  22.47234
    Z8       26.20577  -0.00846   0.00000  -0.00648  -0.00648  26.19929
    X9       17.99603  -0.02157   0.00000  -0.04052  -0.04052  17.95552
    Y9       20.96746  -0.02136   0.00000   0.01518   0.01518  20.98264
    Z9       22.20227  -0.07763   0.00000  -0.11646  -0.11646  22.08581
   X10       24.22905  -0.06208   0.00000  -0.04905  -0.04905  24.18000
   Y10       22.35445   0.01897   0.00000   0.02237   0.02237  22.37681
   Z10       27.30858  -0.01928   0.00000  -0.01772  -0.01772  27.29086
   X11       26.00845   0.05410   0.00000   0.02974   0.02974  26.03819
   Y11       22.65938   0.01191   0.00000   0.02671   0.02671  22.68609
   Z11       25.63175  -0.01539   0.00000   0.00081   0.00081  25.63255
   X12       18.29093   0.03188   0.00000   0.08434   0.08434  18.37527
   Y12       22.55841  -0.04678   0.00000  -0.13884  -0.13884  22.41957
   Z12       23.71082   0.06171   0.00000   0.07907   0.07907  23.78989
   X13       20.62603  -0.00633   0.00000   0.01727   0.01727  20.64330
   Y13       23.73705   0.02968   0.00000   0.04219   0.04219  23.77924
   Z13       23.95902   0.05160   0.00000   0.06420   0.06420  24.02322
   X14       22.82616   0.00011   0.00000  -0.06413  -0.06413  22.76203
   Y14       23.12172  -0.02216   0.00000  -0.02663  -0.02663  23.09509
   Z14       26.18870   0.05331   0.00000   0.10196   0.10196  26.29066
   X15       29.01142  -0.00104   0.00000  -0.01562  -0.01562  28.99581
   Y15       23.21716   0.00338   0.00000   0.01488   0.01488  23.23204
   Z15       21.60831   0.00778   0.00000   0.01533   0.01533  21.62363
   X16       19.93875   0.01889   0.00000   0.02419   0.02419  19.96293
   Y16       24.88147  -0.00355   0.00000  -0.00527  -0.00527  24.87620
   Z16       19.31181   0.00736   0.00000   0.01667   0.01667  19.32848
   X17       27.81062  -0.00975   0.00000  -0.00077  -0.00077  27.80985
   Y17       24.68852   0.00075   0.00000  -0.00005  -0.00005  24.68847
   Z17       17.25250   0.01195   0.00000   0.01919   0.01919  17.27169
   X18       23.31523   0.00377   0.00000   0.01095   0.01095  23.32618
   Y18       25.47949  -0.00183   0.00000   0.00013   0.00013  25.47962
   Z18       16.22357   0.00297   0.00000  -0.00741  -0.00741  16.21616
   X19       15.51824   0.01854   0.00000   0.02234   0.02234  15.54059
   Y19       20.74021   0.01460   0.00000   0.03269   0.03269  20.77290
   Z19       26.28612  -0.00643   0.00000  -0.01106  -0.01106  26.27506
   X20       18.81704  -0.00992   0.00000  -0.03415  -0.03415  18.78289
   Y20       21.01072   0.00634   0.00000   0.01683   0.01683  21.02755
   Z20       27.26503   0.00052   0.00000   0.02325   0.02325  27.28827
   X21       16.74219   0.00618   0.00000   0.00522   0.00522  16.74741
   Y21       23.79169  -0.01662   0.00000  -0.00745  -0.00745  23.78423
   Z21       27.37443  -0.00131   0.00000   0.01297   0.01297  27.38740
         Item               Value     Threshold  Converged?
 Maximum Force            0.077627     0.000450     NO 
 RMS     Force            0.027031     0.000300     NO 
 Maximum Displacement     0.138838     0.001800     NO 
 RMS     Displacement     0.037815     0.001200     NO 
 Predicted change in Energy=-4.003716D-02
 GradGradGradGradGradGradGradGradGradGradGradGradGradGradGradGradGradGrad

 Leave Link  103 at Mon Aug  7 13:15:25 2023, MaxMem=   458752000 cpu:         0.0
 (Enter /opt/apps/apps/binapps/gaussian/g09d01_em64t/g09/l9999.exe)
 1\1\GINC-NODE690\Force\RB3LYP\6-31G(d)\C9H8O4\MBDX6CW3\07-Aug-2023\0\\
 #p b3lyp/6-31g* pop=mk empiricaldispersion=gd3 int(ultrafine) force\\a
 spirin\\0,1\C,14.32448745,12.55602837,11.22806787\C,11.61782146,13.001
 45507,10.50342202\C,13.94460678,12.97856808,9.92278814\C,12.61412263,1
 3.17191482,9.59714472\C,9.11536217,11.6471827,13.9357233\C,13.31488967
 ,12.42442369,12.16828823\C,11.95135236,12.61719704,11.82793617\O,14.93
 723273,11.90127015,13.86749864\O,9.52309132,11.09550118,11.74893737\O,
 12.82146215,11.82946324,14.45107818\C,13.76307845,11.99082971,13.56373
 549\C,9.67914283,11.93739533,12.54722595\O,10.91482759,12.56110668,12.
 67856717\H,12.07908511,12.2354877,13.85846376\H,15.35218358,12.2859907
 2,11.434623\H,10.55113077,13.16670895,10.21936774\H,14.716748,13.06460
 023,9.12962794\H,12.33788729,13.48316312,8.58514428\H,8.21190119,10.97
 524524,13.91001701\H,9.95754778,11.11839533,14.42803025\H,8.85958314,1
 2.5900197,14.48592544\\Version=ES64L-G09RevD.01\State=1-A\HF=-648.6422
 602\RMSD=6.225e-09\RMSF=2.703e-02\Dipole=-1.5452277,0.6905512,-0.88476
 39\Quadrupole=-0.1351044,-0.7537437,0.8888481,-0.5724583,-11.1910827,-
 1.9723917\PG=C01 [X(C9H8O4)]\\@


 AND ALL THIS SCIENCE I DON'T UNDERSTAND
 IT'S JUST MY JOB FIVE DAYS A WEEK

                           -- ELTON JOHN, "ROCKET MAN"
 Job cpu time:       0 days  0 hours  2 minutes 31.1 seconds.
 File lengths (MBytes):  RWF=     20 Int=      0 D2E=      0 Chk=      3 Scr=      1
 Normal termination of Gaussian 09 at Mon Aug  7 13:15:25 2023.
