 Entering Gaussian System, Link 0=/opt/apps/apps/binapps/gaussian/g09d01_em64t/g09/g09
 Initial command:
 /opt/apps/apps/binapps/gaussian/g09d01_em64t/g09/l1.exe "/net/scratch2/mbdx6cw3/aspirin/300K-meta/dft/qm_input/gau_temp_9/Gau-30536.inp" -scrdir="/net/scratch2/mbdx6cw3/aspirin/300K-meta/dft/qm_input/gau_temp_9/"
 Entering Link 1 = /opt/apps/apps/binapps/gaussian/g09d01_em64t/g09/l1.exe PID=     30537.
  
 Copyright (c) 1988,1990,1992,1993,1995,1998,2003,2009,2013,
            Gaussian, Inc.  All Rights Reserved.
  
 This is part of the Gaussian(R) 09 program.  It is based on
 the Gaussian(R) 03 system (copyright 2003, Gaussian, Inc.),
 the Gaussian(R) 98 system (copyright 1998, Gaussian, Inc.),
 the Gaussian(R) 94 system (copyright 1995, Gaussian, Inc.),
 the Gaussian 92(TM) system (copyright 1992, Gaussian, Inc.),
 the Gaussian 90(TM) system (copyright 1990, Gaussian, Inc.),
 the Gaussian 88(TM) system (copyright 1988, Gaussian, Inc.),
 the Gaussian 86(TM) system (copyright 1986, Carnegie Mellon
 University), and the Gaussian 82(TM) system (copyright 1983,
 Carnegie Mellon University). Gaussian is a federally registered
 trademark of Gaussian, Inc.
  
 This software contains proprietary and confidential information,
 including trade secrets, belonging to Gaussian, Inc.
  
 This software is provided under written license and may be
 used, copied, transmitted, or stored only in accord with that
 written license.
  
 The following legend is applicable only to US Government
 contracts under FAR:
  
                    RESTRICTED RIGHTS LEGEND
  
 Use, reproduction and disclosure by the US Government is
 subject to restrictions as set forth in subparagraphs (a)
 and (c) of the Commercial Computer Software - Restricted
 Rights clause in FAR 52.227-19.
  
 Gaussian, Inc.
 340 Quinnipiac St., Bldg. 40, Wallingford CT 06492
  
  
 ---------------------------------------------------------------
 Warning -- This program may not be used in any manner that
 competes with the business of Gaussian, Inc. or will provide
 assistance to any competitor of Gaussian, Inc.  The licensee
 of this program is prohibited from giving any competitor of
 Gaussian, Inc. access to this program.  By using this program,
 the user acknowledges that Gaussian, Inc. is engaged in the
 business of creating and licensing software in the field of
 computational chemistry and represents and warrants to the
 licensee that it is not a competitor of Gaussian, Inc. and that
 it will not use this program in any manner prohibited above.
 ---------------------------------------------------------------
  

 Cite this work as:
 Gaussian 09, Revision D.01,
 M. J. Frisch, G. W. Trucks, H. B. Schlegel, G. E. Scuseria, 
 M. A. Robb, J. R. Cheeseman, G. Scalmani, V. Barone, B. Mennucci, 
 G. A. Petersson, H. Nakatsuji, M. Caricato, X. Li, H. P. Hratchian, 
 A. F. Izmaylov, J. Bloino, G. Zheng, J. L. Sonnenberg, M. Hada, 
 M. Ehara, K. Toyota, R. Fukuda, J. Hasegawa, M. Ishida, T. Nakajima, 
 Y. Honda, O. Kitao, H. Nakai, T. Vreven, J. A. Montgomery, Jr., 
 J. E. Peralta, F. Ogliaro, M. Bearpark, J. J. Heyd, E. Brothers, 
 K. N. Kudin, V. N. Staroverov, T. Keith, R. Kobayashi, J. Normand, 
 K. Raghavachari, A. Rendell, J. C. Burant, S. S. Iyengar, J. Tomasi, 
 M. Cossi, N. Rega, J. M. Millam, M. Klene, J. E. Knox, J. B. Cross, 
 V. Bakken, C. Adamo, J. Jaramillo, R. Gomperts, R. E. Stratmann, 
 O. Yazyev, A. J. Austin, R. Cammi, C. Pomelli, J. W. Ochterski, 
 R. L. Martin, K. Morokuma, V. G. Zakrzewski, G. A. Voth, 
 P. Salvador, J. J. Dannenberg, S. Dapprich, A. D. Daniels, 
 O. Farkas, J. B. Foresman, J. V. Ortiz, J. Cioslowski, 
 and D. J. Fox, Gaussian, Inc., Wallingford CT, 2013.
 
 ******************************************
 Gaussian 09:  ES64L-G09RevD.01 24-Apr-2013
                 7-Aug-2023 
 ******************************************
 %chk=./gau_temp_9/mol_chk.chk
 %mem=3500MB
 -------------------------------------------------------------------
 #p b3lyp/6-31g* pop=mk empiricaldispersion=gd3 int(ultrafine) force
 -------------------------------------------------------------------
 1/10=7,30=1,38=1/1,3;
 2/12=2,17=6,18=5,40=1/2;
 3/5=1,6=6,7=1,11=2,16=1,25=1,30=1,71=1,74=-5,75=-5,124=31/1,2,3;
 4//1;
 5/5=2,38=5/2;
 6/7=2,8=2,9=2,10=2,15=8,20=1,28=1/1,2;
 7/29=1/1,2,3,16;
 1/10=7,30=1/3;
 99//99;
 Leave Link    1 at Mon Aug  7 12:57:58 2023, MaxMem=   458752000 cpu:         0.0
 (Enter /opt/apps/apps/binapps/gaussian/g09d01_em64t/g09/l101.exe)
 -------
 aspirin
 -------
 Symbolic Z-matrix:
 Charge =  0 Multiplicity = 1
 C                     14.18117   12.6928   13.29587 
 C                     12.03691   14.15853   12.3735 
 C                     14.12809   14.08423   13.45659 
 C                     13.01306   14.76715   13.08433 
 C                     8.85801   12.08323   10.79542 
 C                     13.26881   12.06386   12.41398 
 C                     12.11648   12.73167   12.06229 
 O                     14.33678   9.91856   12.59755 
 O                     9.56705   12.38813   13.07022 
 O                     12.79426   10.15917   11.06981 
 C                     13.40463   10.6106   12.16578 
 C                     9.87076   12.22517   11.91431 
 O                     11.07651   12.24989   11.34557 
 H                     12.19637   10.91856   10.91615 
 H                     15.05577   12.13981   13.60024 
 H                     11.19697   14.76263   12.04292 
 H                     14.95872   14.50926   14.06639 
 H                     12.97652   15.83624   13.15967 
 H                     8.86062   11.17152   10.30641 
 H                     7.88415   12.21358   11.20636 
 H                     9.0481    12.93371   10.08802 
 
 NAtoms=     21 NQM=       21 NQMF=       0 NMMI=      0 NMMIF=      0
                NMic=       0 NMicF=      0.
                    Isotopes and Nuclear Properties:
 (Nuclear quadrupole moments (NQMom) in fm**2, nuclear magnetic moments (NMagM)
  in nuclear magnetons)

  Atom         1           2           3           4           5           6           7           8           9          10
 IAtWgt=          12          12          12          12          12          12          12          16          16          16
 AtmWgt=  12.0000000  12.0000000  12.0000000  12.0000000  12.0000000  12.0000000  12.0000000  15.9949146  15.9949146  15.9949146
 NucSpn=           0           0           0           0           0           0           0           0           0           0
 AtZEff=   0.0000000   0.0000000   0.0000000   0.0000000   0.0000000   0.0000000   0.0000000   0.0000000   0.0000000   0.0000000
 NQMom=    0.0000000   0.0000000   0.0000000   0.0000000   0.0000000   0.0000000   0.0000000   0.0000000   0.0000000   0.0000000
 NMagM=    0.0000000   0.0000000   0.0000000   0.0000000   0.0000000   0.0000000   0.0000000   0.0000000   0.0000000   0.0000000
 AtZNuc=   6.0000000   6.0000000   6.0000000   6.0000000   6.0000000   6.0000000   6.0000000   8.0000000   8.0000000   8.0000000

  Atom        11          12          13          14          15          16          17          18          19          20
 IAtWgt=          12          12          16           1           1           1           1           1           1           1
 AtmWgt=  12.0000000  12.0000000  15.9949146   1.0078250   1.0078250   1.0078250   1.0078250   1.0078250   1.0078250   1.0078250
 NucSpn=           0           0           0           1           1           1           1           1           1           1
 AtZEff=   0.0000000   0.0000000   0.0000000   0.0000000   0.0000000   0.0000000   0.0000000   0.0000000   0.0000000   0.0000000
 NQMom=    0.0000000   0.0000000   0.0000000   0.0000000   0.0000000   0.0000000   0.0000000   0.0000000   0.0000000   0.0000000
 NMagM=    0.0000000   0.0000000   0.0000000   2.7928460   2.7928460   2.7928460   2.7928460   2.7928460   2.7928460   2.7928460
 AtZNuc=   6.0000000   6.0000000   8.0000000   1.0000000   1.0000000   1.0000000   1.0000000   1.0000000   1.0000000   1.0000000

  Atom        21
 IAtWgt=           1
 AtmWgt=   1.0078250
 NucSpn=           1
 AtZEff=   0.0000000
 NQMom=    0.0000000
 NMagM=    2.7928460
 AtZNuc=   1.0000000
 Leave Link  101 at Mon Aug  7 12:57:58 2023, MaxMem=   458752000 cpu:         0.1
 (Enter /opt/apps/apps/binapps/gaussian/g09d01_em64t/g09/l103.exe)

 GradGradGradGradGradGradGradGradGradGradGradGradGradGradGradGradGradGrad
 Berny optimization.
 Initialization pass.
 Trust Radius=3.00D-01 FncErr=1.00D-07 GrdErr=1.00D-07
 Number of steps in this run=      2 maximum allowed number of steps=      2.
 GradGradGradGradGradGradGradGradGradGradGradGradGradGradGradGradGradGrad

 Leave Link  103 at Mon Aug  7 12:57:58 2023, MaxMem=   458752000 cpu:         0.0
 (Enter /opt/apps/apps/binapps/gaussian/g09d01_em64t/g09/l202.exe)
                          Input orientation:                          
 ---------------------------------------------------------------------
 Center     Atomic      Atomic             Coordinates (Angstroms)
 Number     Number       Type             X           Y           Z
 ---------------------------------------------------------------------
      1          6           0       14.181170   12.692803   13.295866
      2          6           0       12.036912   14.158533   12.373505
      3          6           0       14.128094   14.084229   13.456593
      4          6           0       13.013059   14.767150   13.084334
      5          6           0        8.858010   12.083228   10.795416
      6          6           0       13.268811   12.063857   12.413985
      7          6           0       12.116480   12.731675   12.062286
      8          8           0       14.336776    9.918564   12.597549
      9          8           0        9.567050   12.388134   13.070225
     10          8           0       12.794261   10.159168   11.069807
     11          6           0       13.404634   10.610601   12.165782
     12          6           0        9.870757   12.225168   11.914309
     13          8           0       11.076506   12.249886   11.345569
     14          1           0       12.196374   10.918559   10.916152
     15          1           0       15.055770   12.139807   13.600241
     16          1           0       11.196969   14.762626   12.042918
     17          1           0       14.958721   14.509257   14.066385
     18          1           0       12.976516   15.836242   13.159671
     19          1           0        8.860618   11.171525   10.306414
     20          1           0        7.884152   12.213576   11.206355
     21          1           0        9.048097   12.933712   10.088023
 ---------------------------------------------------------------------
                    Distance matrix (angstroms):
                    1          2          3          4          5
     1  C    0.000000
     2  C    2.756258   0.000000
     3  C    1.401684   2.356192   0.000000
     4  C    2.390009   1.352241   1.359507   0.000000
     5  C    5.912688   4.111287   6.233752   5.450415   0.000000
     6  C    1.416223   2.430407   2.430494   2.796885   4.698436
     7  C    2.405448   1.462570   2.796441   2.447773   3.555710
     8  O    2.865007   4.828758   4.258436   5.049551   6.160384
     9  O    4.629670   3.117683   4.881510   4.187468   2.402179
    10  O    3.646665   4.274122   4.783509   5.033854   4.389917
    11  C    2.493124   3.808101   3.775670   4.274806   4.971753
    12  C    4.550500   2.939556   4.894861   4.207694   1.515826
    13  O    3.693071   2.371068   4.139254   3.620795   2.291762
    14  H    3.570770   3.556225   4.495203   4.492175   3.537755
    15  H    1.078598   3.833228   2.159166   3.367753   6.803123
    16  H    3.841810   1.086150   3.324183   2.093502   3.769107
    17  H    2.120799   3.394970   1.114647   2.194661   7.335090
    18  H    3.369117   2.077408   2.117508   1.072367   6.052844
    19  H    6.289625   4.825342   6.793656   6.155333   1.034568
    20  H    6.651929   4.731862   6.895631   6.029364   1.065017
    21  H    6.057783   3.956846   6.203009   5.297197   1.122435
                    6          7          8          9         10
     6  C    0.000000
     7  C    1.377512   0.000000
     8  O    2.403441   3.623508   0.000000
     9  O    3.773438   2.762888   5.391890   0.000000
    10  O    2.379044   2.839400   2.184316   4.402823   0.000000
    11  C    1.480543   2.483749   1.238638   4.324892   1.333233
    12  C    3.438381   2.306885   5.072727   1.206207   3.678099
    13  O    2.445877   1.351795   4.199032   2.296085   2.719894
    14  H    2.169178   2.146485   2.899725   3.703110   0.978648
    15  H    2.146205   3.369724   2.540918   5.519839   3.929433
    16  H    3.422509   2.229493   5.799219   3.057810   4.968914
    17  H    3.400913   3.905707   4.859914   5.878913   5.708559
    18  H    3.856472   3.403271   6.097967   4.849939   6.052266
    19  H    4.966917   4.014697   6.066919   3.101263   4.132938
    20  H    5.520447   4.348982   6.988480   2.517266   5.324322
    21  H    4.897057   3.654245   6.584752   3.075792   4.764004
                   11         12         13         14         15
    11  C    0.000000
    12  C    3.893373   0.000000
    13  O    2.963138   1.333382   0.000000
    14  H    1.765306   2.848164   1.791908   0.000000
    15  H    2.668781   5.452890   4.574954   4.107545   0.000000
    16  H    4.704061   2.866020   2.610492   4.128591   4.918819
    17  H    4.607277   5.977949   5.251590   5.517939   2.416817
    18  H    5.336519   4.923061   4.445555   5.461283   4.263922
    19  H    4.941656   2.171605   2.674484   3.400446   7.082850
    20  H    5.828014   2.109012   3.195595   4.511823   7.560968
    21  H    5.356617   2.124647   2.482637   3.828614   7.004148
                   16         17         18         19         20
    16  H    0.000000
    17  H    4.278948   0.000000
    18  H    2.359360   2.551893   0.000000
    19  H    4.622768   7.903461   6.844069   0.000000
    20  H    4.262892   7.968655   6.547620   1.687972   0.000000
    21  H    3.432811   7.296930   5.769938   1.785539   1.767493
                   21
    21  H    0.000000
 Stoichiometry    C9H8O4
 Framework group  C1[X(C9H8O4)]
 Deg. of freedom    57
 Full point group                 C1      NOp   1
 Largest Abelian subgroup         C1      NOp   1
 Largest concise Abelian subgroup C1      NOp   1
                         Standard orientation:                         
 ---------------------------------------------------------------------
 Center     Atomic      Atomic             Coordinates (Angstroms)
 Number     Number       Type             X           Y           Z
 ---------------------------------------------------------------------
      1          6           0        2.274963    0.535822    0.278397
      2          6           0       -0.052112    1.831126   -0.431441
      3          6           0        2.262367    1.910093    0.002829
      4          6           0        1.083543    2.540803   -0.243822
      5          6           0       -3.538415   -0.346168   -0.343379
      6          6           0        1.151417   -0.250208   -0.075849
      7          6           0       -0.057145    0.375533   -0.288843
      8          8           0        2.239280   -2.322504    0.470661
      9          8           0       -2.207896    0.569908    1.434537
     10          8           0        0.321764   -2.424342   -0.570492
     11          6           0        1.218512   -1.716619    0.116881
     12          6           0       -2.247903    0.040449    0.351482
     13          8           0       -1.256349   -0.210076   -0.504068
     14          1           0       -0.299366   -1.698906   -0.784251
     15          1           0        3.203251    0.028391    0.488558
     16          1           0       -0.955019    2.376223   -0.690957
     17          1           0        3.230667    2.427287    0.196074
     18          1           0        1.064101    3.581818   -0.500494
     19          1           0       -3.671129   -1.359728   -0.502803
     20          1           0       -4.354026   -0.015711    0.256486
     21          1           0       -3.564243    0.231747   -1.305256
 ---------------------------------------------------------------------
 Rotational constants (GHZ):      1.0618100      0.7282405      0.4788374
 Leave Link  202 at Mon Aug  7 12:57:58 2023, MaxMem=   458752000 cpu:         0.0
 (Enter /opt/apps/apps/binapps/gaussian/g09d01_em64t/g09/l301.exe)
 Standard basis: 6-31G(d) (6D, 7F)
 Ernie: Thresh=  0.10000D-02 Tol=  0.10000D-05 Strict=F.
 There are   211 symmetry adapted cartesian basis functions of A   symmetry.
 There are   211 symmetry adapted basis functions of A   symmetry.
   211 basis functions,   396 primitive gaussians,   211 cartesian basis functions
    47 alpha electrons       47 beta electrons
       nuclear repulsion energy       780.1893005227 Hartrees.
 IExCor=  402 DFT=T Ex+Corr=B3LYP ExCW=0 ScaHFX=  0.200000
 ScaDFX=  0.800000  0.720000  1.000000  0.810000 ScalE2=  1.000000  1.000000
 IRadAn=      5 IRanWt=     -1 IRanGd=            0 ICorTp=0 IEmpDi=131
 NAtoms=   21 NActive=   21 NUniq=   21 SFac= 1.00D+00 NAtFMM=   60 NAOKFM=F Big=F
 Integral buffers will be    131072 words long.
 Raffenetti 2 integral format.
 Two-electron integral symmetry is turned on.
 R6Disp:  Grimme-D3 Dispersion energy=       -0.0174598740 Hartrees.
 Nuclear repulsion after empirical dispersion term =      780.1718406486 Hartrees.
 Leave Link  301 at Mon Aug  7 12:57:58 2023, MaxMem=   458752000 cpu:         0.0
 (Enter /opt/apps/apps/binapps/gaussian/g09d01_em64t/g09/l302.exe)
 NPDir=0 NMtPBC=     1 NCelOv=     1 NCel=       1 NClECP=     1 NCelD=      1
         NCelK=      1 NCelE2=     1 NClLst=     1 CellRange=     0.0.
 One-electron integrals computed using PRISM.
 NBasis=   211 RedAO= T EigKep=  7.41D-04  NBF=   211
 NBsUse=   211 1.00D-06 EigRej= -1.00D+00 NBFU=   211
 Precomputing XC quadrature grid using
 IXCGrd= 4 IRadAn=           5 IRanWt=          -1 IRanGd=           0 AccXCQ= 0.00D+00.
 Generated NRdTot=       0 NPtTot=           0 NUsed=           0 NTot=          32
 NSgBfM=   210   210   210   210   210 MxSgAt=    21 MxSgA2=    21.
 Leave Link  302 at Mon Aug  7 12:57:59 2023, MaxMem=   458752000 cpu:         0.7
 (Enter /opt/apps/apps/binapps/gaussian/g09d01_em64t/g09/l303.exe)
 DipDrv:  MaxL=1.
 Leave Link  303 at Mon Aug  7 12:57:59 2023, MaxMem=   458752000 cpu:         0.0
 (Enter /opt/apps/apps/binapps/gaussian/g09d01_em64t/g09/l401.exe)
 ExpMin= 1.61D-01 ExpMax= 5.48D+03 ExpMxC= 8.25D+02 IAcc=3 IRadAn=         5 AccDes= 0.00D+00
 Harris functional with IExCor=  402 and IRadAn=       5 diagonalized for initial guess.
 HarFok:  IExCor=  402 AccDes= 0.00D+00 IRadAn=         5 IDoV= 1 UseB2=F ITyADJ=14
 ICtDFT=  3500011 ScaDFX=  1.000000  1.000000  1.000000  1.000000
 FoFCou: FMM=F IPFlag=           0 FMFlag=      100000 FMFlg1=           0
         NFxFlg=           0 DoJE=T BraDBF=F KetDBF=T FulRan=T
         wScrn=  0.000000 ICntrl=     500 IOpCl=  0 I1Cent=   200000004 NGrid=           0
         NMat0=    1 NMatS0=      1 NMatT0=    0 NMatD0=    1 NMtDS0=    0 NMtDT0=    0
 Petite list used in FoFCou.
 Harris En= -648.706238927585    
 JPrj=0 DoOrth=F DoCkMO=F.
 Leave Link  401 at Mon Aug  7 12:58:07 2023, MaxMem=   458752000 cpu:         8.5
 (Enter /opt/apps/apps/binapps/gaussian/g09d01_em64t/g09/l502.exe)
 Closed shell SCF:
 Using DIIS extrapolation, IDIIS=  1040.
 Integral symmetry usage will be decided dynamically.
 Keep R1 ints in memory in canonical form, NReq=255049085.
 IVT=      154966 IEndB=      154966 NGot=   458752000 MDV=   208466874
 LenX=   208466874 LenY=   208421912
 Requested convergence on RMS density matrix=1.00D-08 within 128 cycles.
 Requested convergence on MAX density matrix=1.00D-06.
 Requested convergence on             energy=1.00D-06.
 No special actions if energy rises.
 FoFCou: FMM=F IPFlag=           0 FMFlag=           0 FMFlg1=           0
         NFxFlg=           0 DoJE=F BraDBF=F KetDBF=F FulRan=T
         wScrn=  0.000000 ICntrl=     600 IOpCl=  0 I1Cent=           0 NGrid=           0
         NMat0=    1 NMatS0=  22366 NMatT0=    0 NMatD0=    1 NMtDS0=    0 NMtDT0=    0
 Symmetry not used in FoFCou.
 Integral accuracy reduced to 1.0D-05 until final iterations.

 Cycle   1  Pass 0  IDiag  1:
 E= -648.269022583912    
 DIIS: error= 2.44D-02 at cycle   1 NSaved=   1.
 NSaved= 1 IEnMin= 1 EnMin= -648.269022583912     IErMin= 1 ErrMin= 2.44D-02
 ErrMax= 2.44D-02  0.00D+00 EMaxC= 1.00D-01 BMatC= 4.45D-01 BMatP= 4.45D-01
 IDIUse=3 WtCom= 7.56D-01 WtEn= 2.44D-01
 Coeff-Com:  0.100D+01
 Coeff-En:   0.100D+01
 Coeff:      0.100D+01
 Gap=     0.221 Goal=   None    Shift=    0.000
 GapD=    0.221 DampG=1.000 DampE=0.500 DampFc=0.5000 IDamp=-1.
 Damping current iteration by 5.00D-01
 RMSDP=8.48D-03 MaxDP=2.32D-01              OVMax= 3.17D-01

 Cycle   2  Pass 0  IDiag  1:
 E= -648.294412493747     Delta-E=       -0.025389909834 Rises=F Damp=T
 DIIS: error= 1.90D-02 at cycle   2 NSaved=   2.
 NSaved= 2 IEnMin= 2 EnMin= -648.294412493747     IErMin= 2 ErrMin= 1.90D-02
 ErrMax= 1.90D-02  0.00D+00 EMaxC= 1.00D-01 BMatC= 1.30D-01 BMatP= 4.45D-01
 IDIUse=3 WtCom= 8.10D-01 WtEn= 1.90D-01
 Coeff-Com:  0.311D+00 0.689D+00
 Coeff-En:   0.473D+00 0.527D+00
 Coeff:      0.341D+00 0.659D+00
 Gap=     0.217 Goal=   None    Shift=    0.000
 RMSDP=2.97D-03 MaxDP=8.74D-02 DE=-2.54D-02 OVMax= 2.76D-01

 Cycle   3  Pass 0  IDiag  1:
 E= -648.585905612580     Delta-E=       -0.291493118833 Rises=F Damp=F
 DIIS: error= 1.30D-02 at cycle   3 NSaved=   3.
 NSaved= 3 IEnMin= 3 EnMin= -648.585905612580     IErMin= 3 ErrMin= 1.30D-02
 ErrMax= 1.30D-02  0.00D+00 EMaxC= 1.00D-01 BMatC= 7.91D-02 BMatP= 1.30D-01
 IDIUse=3 WtCom= 8.70D-01 WtEn= 1.30D-01
 Coeff-Com:  0.128D+00 0.422D+00 0.449D+00
 Coeff-En:   0.000D+00 0.000D+00 0.100D+01
 Coeff:      0.112D+00 0.368D+00 0.521D+00
 Gap=     0.209 Goal=   None    Shift=    0.000
 RMSDP=1.76D-03 MaxDP=4.85D-02 DE=-2.91D-01 OVMax= 9.39D-02

 Cycle   4  Pass 0  IDiag  1:
 E= -648.646175606016     Delta-E=       -0.060269993436 Rises=F Damp=F
 DIIS: error= 5.87D-03 at cycle   4 NSaved=   4.
 NSaved= 4 IEnMin= 4 EnMin= -648.646175606016     IErMin= 4 ErrMin= 5.87D-03
 ErrMax= 5.87D-03  0.00D+00 EMaxC= 1.00D-01 BMatC= 1.38D-02 BMatP= 7.91D-02
 IDIUse=3 WtCom= 9.41D-01 WtEn= 5.87D-02
 Coeff-Com:  0.345D-01 0.875D-01 0.303D+00 0.575D+00
 Coeff-En:   0.000D+00 0.000D+00 0.151D+00 0.849D+00
 Coeff:      0.325D-01 0.824D-01 0.294D+00 0.591D+00
 Gap=     0.207 Goal=   None    Shift=    0.000
 RMSDP=5.98D-04 MaxDP=2.10D-02 DE=-6.03D-02 OVMax= 2.99D-02

 Cycle   5  Pass 0  IDiag  1:
 E= -648.656024607497     Delta-E=       -0.009849001481 Rises=F Damp=F
 DIIS: error= 1.88D-03 at cycle   5 NSaved=   5.
 NSaved= 5 IEnMin= 5 EnMin= -648.656024607497     IErMin= 5 ErrMin= 1.88D-03
 ErrMax= 1.88D-03  0.00D+00 EMaxC= 1.00D-01 BMatC= 1.23D-03 BMatP= 1.38D-02
 IDIUse=3 WtCom= 9.81D-01 WtEn= 1.88D-02
 Coeff-Com:  0.721D-02 0.433D-02 0.126D+00 0.360D+00 0.502D+00
 Coeff-En:   0.000D+00 0.000D+00 0.000D+00 0.185D-01 0.981D+00
 Coeff:      0.708D-02 0.425D-02 0.124D+00 0.354D+00 0.511D+00
 Gap=     0.204 Goal=   None    Shift=    0.000
 RMSDP=2.03D-04 MaxDP=7.17D-03 DE=-9.85D-03 OVMax= 1.04D-02

 Cycle   6  Pass 0  IDiag  1:
 E= -648.656945341724     Delta-E=       -0.000920734227 Rises=F Damp=F
 DIIS: error= 5.28D-04 at cycle   6 NSaved=   6.
 NSaved= 6 IEnMin= 6 EnMin= -648.656945341724     IErMin= 6 ErrMin= 5.28D-04
 ErrMax= 5.28D-04  0.00D+00 EMaxC= 1.00D-01 BMatC= 1.32D-04 BMatP= 1.23D-03
 IDIUse=3 WtCom= 9.95D-01 WtEn= 5.28D-03
 Coeff-Com:  0.183D-02-0.434D-02 0.482D-01 0.153D+00 0.313D+00 0.488D+00
 Coeff-En:   0.000D+00 0.000D+00 0.000D+00 0.000D+00 0.646D-01 0.935D+00
 Coeff:      0.182D-02-0.432D-02 0.480D-01 0.153D+00 0.312D+00 0.490D+00
 Gap=     0.204 Goal=   None    Shift=    0.000
 RMSDP=5.62D-05 MaxDP=1.92D-03 DE=-9.21D-04 OVMax= 2.97D-03

 Cycle   7  Pass 0  IDiag  1:
 E= -648.657045292784     Delta-E=       -0.000099951059 Rises=F Damp=F
 DIIS: error= 1.79D-04 at cycle   7 NSaved=   7.
 NSaved= 7 IEnMin= 7 EnMin= -648.657045292784     IErMin= 7 ErrMin= 1.79D-04
 ErrMax= 1.79D-04  0.00D+00 EMaxC= 1.00D-01 BMatC= 1.37D-05 BMatP= 1.32D-04
 IDIUse=3 WtCom= 9.98D-01 WtEn= 1.79D-03
 Coeff-Com:  0.487D-03-0.341D-02 0.165D-01 0.538D-01 0.142D+00 0.303D+00
 Coeff-Com:  0.488D+00
 Coeff-En:   0.000D+00 0.000D+00 0.000D+00 0.000D+00 0.000D+00 0.104D-01
 Coeff-En:   0.990D+00
 Coeff:      0.487D-03-0.341D-02 0.165D-01 0.537D-01 0.142D+00 0.302D+00
 Coeff:      0.489D+00
 Gap=     0.203 Goal=   None    Shift=    0.000
 RMSDP=1.94D-05 MaxDP=5.39D-04 DE=-1.00D-04 OVMax= 7.36D-04

 Cycle   8  Pass 0  IDiag  1:
 E= -648.657055049181     Delta-E=       -0.000009756397 Rises=F Damp=F
 DIIS: error= 5.19D-05 at cycle   8 NSaved=   8.
 NSaved= 8 IEnMin= 8 EnMin= -648.657055049181     IErMin= 8 ErrMin= 5.19D-05
 ErrMax= 5.19D-05  0.00D+00 EMaxC= 1.00D-01 BMatC= 1.24D-06 BMatP= 1.37D-05
 IDIUse=1 WtCom= 1.00D+00 WtEn= 0.00D+00
 Coeff-Com:  0.193D-03-0.165D-02 0.480D-02 0.147D-01 0.519D-01 0.123D+00
 Coeff-Com:  0.280D+00 0.527D+00
 Coeff:      0.193D-03-0.165D-02 0.480D-02 0.147D-01 0.519D-01 0.123D+00
 Coeff:      0.280D+00 0.527D+00
 Gap=     0.203 Goal=   None    Shift=    0.000
 RMSDP=5.79D-06 MaxDP=2.47D-04 DE=-9.76D-06 OVMax= 2.48D-04

 Initial convergence to 1.0D-05 achieved.  Increase integral accuracy.
 Cycle   9  Pass 1  IDiag  1:
 E= -648.657046184321     Delta-E=        0.000008864860 Rises=F Damp=F
 DIIS: error= 2.23D-05 at cycle   1 NSaved=   1.
 NSaved= 1 IEnMin= 1 EnMin= -648.657046184321     IErMin= 1 ErrMin= 2.23D-05
 ErrMax= 2.23D-05  0.00D+00 EMaxC= 1.00D-01 BMatC= 1.29D-07 BMatP= 1.29D-07
 IDIUse=1 WtCom= 1.00D+00 WtEn= 0.00D+00
 Coeff-Com:  0.100D+01
 Coeff:      0.100D+01
 Gap=     0.203 Goal=   None    Shift=    0.000
 RMSDP=5.79D-06 MaxDP=2.47D-04 DE= 8.86D-06 OVMax= 2.37D-04

 Cycle  10  Pass 1  IDiag  1:
 E= -648.657045857622     Delta-E=        0.000000326699 Rises=F Damp=F
 DIIS: error= 4.59D-05 at cycle   2 NSaved=   2.
 NSaved= 2 IEnMin= 1 EnMin= -648.657046184321     IErMin= 1 ErrMin= 2.23D-05
 ErrMax= 4.59D-05  0.00D+00 EMaxC= 1.00D-01 BMatC= 5.01D-07 BMatP= 1.29D-07
 IDIUse=1 WtCom= 1.00D+00 WtEn= 0.00D+00
 Coeff-Com:  0.667D+00 0.333D+00
 Coeff:      0.667D+00 0.333D+00
 Gap=     0.203 Goal=   None    Shift=    0.000
 RMSDP=3.09D-06 MaxDP=1.18D-04 DE= 3.27D-07 OVMax= 1.75D-04

 Cycle  11  Pass 1  IDiag  1:
 E= -648.657046301712     Delta-E=       -0.000000444090 Rises=F Damp=F
 DIIS: error= 3.72D-06 at cycle   3 NSaved=   3.
 NSaved= 3 IEnMin= 3 EnMin= -648.657046301712     IErMin= 3 ErrMin= 3.72D-06
 ErrMax= 3.72D-06  0.00D+00 EMaxC= 1.00D-01 BMatC= 4.73D-09 BMatP= 1.29D-07
 IDIUse=1 WtCom= 1.00D+00 WtEn= 0.00D+00
 Coeff-Com:  0.273D+00 0.160D+00 0.567D+00
 Coeff:      0.273D+00 0.160D+00 0.567D+00
 Gap=     0.203 Goal=   None    Shift=    0.000
 RMSDP=4.42D-07 MaxDP=1.26D-05 DE=-4.44D-07 OVMax= 2.07D-05

 Cycle  12  Pass 1  IDiag  1:
 E= -648.657046304038     Delta-E=       -0.000000002326 Rises=F Damp=F
 DIIS: error= 1.93D-06 at cycle   4 NSaved=   4.
 NSaved= 4 IEnMin= 4 EnMin= -648.657046304038     IErMin= 4 ErrMin= 1.93D-06
 ErrMax= 1.93D-06  0.00D+00 EMaxC= 1.00D-01 BMatC= 1.54D-09 BMatP= 4.73D-09
 IDIUse=1 WtCom= 1.00D+00 WtEn= 0.00D+00
 Coeff-Com:  0.432D-01 0.393D-01 0.377D+00 0.541D+00
 Coeff:      0.432D-01 0.393D-01 0.377D+00 0.541D+00
 Gap=     0.203 Goal=   None    Shift=    0.000
 RMSDP=2.41D-07 MaxDP=6.05D-06 DE=-2.33D-09 OVMax= 1.46D-05

 Cycle  13  Pass 1  IDiag  1:
 E= -648.657046305306     Delta-E=       -0.000000001268 Rises=F Damp=F
 DIIS: error= 7.22D-07 at cycle   5 NSaved=   5.
 NSaved= 5 IEnMin= 5 EnMin= -648.657046305306     IErMin= 5 ErrMin= 7.22D-07
 ErrMax= 7.22D-07  0.00D+00 EMaxC= 1.00D-01 BMatC= 1.96D-10 BMatP= 1.54D-09
 IDIUse=1 WtCom= 1.00D+00 WtEn= 0.00D+00
 Coeff-Com: -0.407D-02 0.688D-02 0.165D+00 0.343D+00 0.489D+00
 Coeff:     -0.407D-02 0.688D-02 0.165D+00 0.343D+00 0.489D+00
 Gap=     0.203 Goal=   None    Shift=    0.000
 RMSDP=8.10D-08 MaxDP=2.48D-06 DE=-1.27D-09 OVMax= 4.80D-06

 Cycle  14  Pass 1  IDiag  1:
 E= -648.657046305497     Delta-E=       -0.000000000192 Rises=F Damp=F
 DIIS: error= 1.52D-07 at cycle   6 NSaved=   6.
 NSaved= 6 IEnMin= 6 EnMin= -648.657046305497     IErMin= 6 ErrMin= 1.52D-07
 ErrMax= 1.52D-07  0.00D+00 EMaxC= 1.00D-01 BMatC= 1.54D-11 BMatP= 1.96D-10
 IDIUse=1 WtCom= 1.00D+00 WtEn= 0.00D+00
 Coeff-Com: -0.706D-02-0.168D-03 0.536D-01 0.145D+00 0.279D+00 0.530D+00
 Coeff:     -0.706D-02-0.168D-03 0.536D-01 0.145D+00 0.279D+00 0.530D+00
 Gap=     0.203 Goal=   None    Shift=    0.000
 RMSDP=2.13D-08 MaxDP=9.85D-07 DE=-1.92D-10 OVMax= 1.28D-06

 Cycle  15  Pass 1  IDiag  1:
 E= -648.657046305506     Delta-E=       -0.000000000009 Rises=F Damp=F
 DIIS: error= 8.10D-08 at cycle   7 NSaved=   7.
 NSaved= 7 IEnMin= 7 EnMin= -648.657046305506     IErMin= 7 ErrMin= 8.10D-08
 ErrMax= 8.10D-08  0.00D+00 EMaxC= 1.00D-01 BMatC= 2.26D-12 BMatP= 1.54D-11
 IDIUse=1 WtCom= 1.00D+00 WtEn= 0.00D+00
 Coeff-Com: -0.408D-02-0.567D-03 0.199D-01 0.648D-01 0.134D+00 0.340D+00
 Coeff-Com:  0.446D+00
 Coeff:     -0.408D-02-0.567D-03 0.199D-01 0.648D-01 0.134D+00 0.340D+00
 Coeff:      0.446D+00
 Gap=     0.203 Goal=   None    Shift=    0.000
 RMSDP=8.11D-09 MaxDP=3.44D-07 DE=-8.64D-12 OVMax= 4.12D-07

 SCF Done:  E(RB3LYP) =  -648.657046306     A.U. after   15 cycles
            NFock= 15  Conv=0.81D-08     -V/T= 2.0084
 KE= 6.432690258495D+02 PE=-3.074374854863D+03 EE= 1.002276942059D+03
 Leave Link  502 at Mon Aug  7 13:00:25 2023, MaxMem=   458752000 cpu:       137.1
 (Enter /opt/apps/apps/binapps/gaussian/g09d01_em64t/g09/l601.exe)
 Copying SCF densities to generalized density rwf, IOpCl= 0 IROHF=0.

 **********************************************************************

            Population analysis using the SCF density.

 **********************************************************************

 Orbital symmetries:
       Occupied  (A) (A) (A) (A) (A) (A) (A) (A) (A) (A) (A) (A)
                 (A) (A) (A) (A) (A) (A) (A) (A) (A) (A) (A) (A)
                 (A) (A) (A) (A) (A) (A) (A) (A) (A) (A) (A) (A)
                 (A) (A) (A) (A) (A) (A) (A) (A) (A) (A) (A)
       Virtual   (A) (A) (A) (A) (A) (A) (A) (A) (A) (A) (A) (A)
                 (A) (A) (A) (A) (A) (A) (A) (A) (A) (A) (A) (A)
                 (A) (A) (A) (A) (A) (A) (A) (A) (A) (A) (A) (A)
                 (A) (A) (A) (A) (A) (A) (A) (A) (A) (A) (A) (A)
                 (A) (A) (A) (A) (A) (A) (A) (A) (A) (A) (A) (A)
                 (A) (A) (A) (A) (A) (A) (A) (A) (A) (A) (A) (A)
                 (A) (A) (A) (A) (A) (A) (A) (A) (A) (A) (A) (A)
                 (A) (A) (A) (A) (A) (A) (A) (A) (A) (A) (A) (A)
                 (A) (A) (A) (A) (A) (A) (A) (A) (A) (A) (A) (A)
                 (A) (A) (A) (A) (A) (A) (A) (A) (A) (A) (A) (A)
                 (A) (A) (A) (A) (A) (A) (A) (A) (A) (A) (A) (A)
                 (A) (A) (A) (A) (A) (A) (A) (A) (A) (A) (A) (A)
                 (A) (A) (A) (A) (A) (A) (A) (A) (A) (A) (A) (A)
                 (A) (A) (A) (A) (A) (A) (A) (A)
 The electronic state is 1-A.
 Alpha  occ. eigenvalues --  -19.25416 -19.19294 -19.17053 -19.12422 -10.35329
 Alpha  occ. eigenvalues --  -10.31800 -10.29139 -10.23164 -10.22100 -10.21855
 Alpha  occ. eigenvalues --  -10.21448 -10.21255 -10.20857  -1.17572  -1.10863
 Alpha  occ. eigenvalues --   -1.06330  -0.99797  -0.89056  -0.81491  -0.78963
 Alpha  occ. eigenvalues --   -0.75508  -0.69061  -0.66035  -0.61186  -0.60510
 Alpha  occ. eigenvalues --   -0.54997  -0.53308  -0.52846  -0.51602  -0.49886
 Alpha  occ. eigenvalues --   -0.47453  -0.45503  -0.45048  -0.43644  -0.43254
 Alpha  occ. eigenvalues --   -0.42259  -0.41788  -0.40766  -0.38820  -0.38543
 Alpha  occ. eigenvalues --   -0.37369  -0.34485  -0.30842  -0.30304  -0.28269
 Alpha  occ. eigenvalues --   -0.26668  -0.26346
 Alpha virt. eigenvalues --   -0.06012  -0.03996  -0.01851   0.03637   0.07321
 Alpha virt. eigenvalues --    0.08312   0.11326   0.12511   0.13822   0.14632
 Alpha virt. eigenvalues --    0.15532   0.16519   0.17260   0.19637   0.21702
 Alpha virt. eigenvalues --    0.23968   0.25482   0.25903   0.30518   0.30719
 Alpha virt. eigenvalues --    0.31604   0.34718   0.37630   0.38384   0.45079
 Alpha virt. eigenvalues --    0.47902   0.48292   0.50451   0.50874   0.51212
 Alpha virt. eigenvalues --    0.53168   0.53893   0.54940   0.56510   0.57861
 Alpha virt. eigenvalues --    0.58148   0.58866   0.59791   0.60206   0.61908
 Alpha virt. eigenvalues --    0.62694   0.64550   0.65379   0.66595   0.67703
 Alpha virt. eigenvalues --    0.70898   0.73835   0.74856   0.77592   0.79572
 Alpha virt. eigenvalues --    0.79922   0.81655   0.82710   0.83902   0.86315
 Alpha virt. eigenvalues --    0.87195   0.87838   0.88626   0.89722   0.91395
 Alpha virt. eigenvalues --    0.94160   0.95359   0.96158   0.98100   0.99892
 Alpha virt. eigenvalues --    1.01928   1.04246   1.04625   1.05705   1.07560
 Alpha virt. eigenvalues --    1.08866   1.11487   1.13700   1.14865   1.17538
 Alpha virt. eigenvalues --    1.20903   1.22601   1.23160   1.29695   1.31885
 Alpha virt. eigenvalues --    1.32969   1.36209   1.38044   1.42855   1.43568
 Alpha virt. eigenvalues --    1.45594   1.46376   1.51198   1.53234   1.54689
 Alpha virt. eigenvalues --    1.59801   1.62943   1.66384   1.67229   1.69552
 Alpha virt. eigenvalues --    1.71171   1.74427   1.75800   1.76707   1.78574
 Alpha virt. eigenvalues --    1.79101   1.80144   1.82853   1.84891   1.85301
 Alpha virt. eigenvalues --    1.87978   1.89507   1.91744   1.92515   1.95429
 Alpha virt. eigenvalues --    1.95807   1.98215   2.02353   2.03313   2.06446
 Alpha virt. eigenvalues --    2.08822   2.12992   2.14984   2.17390   2.20602
 Alpha virt. eigenvalues --    2.24478   2.25511   2.25977   2.27872   2.29541
 Alpha virt. eigenvalues --    2.36022   2.38822   2.40109   2.41932   2.46253
 Alpha virt. eigenvalues --    2.51574   2.56540   2.56945   2.60199   2.61227
 Alpha virt. eigenvalues --    2.62554   2.66079   2.67917   2.71111   2.74772
 Alpha virt. eigenvalues --    2.76042   2.83221   2.83858   2.87793   2.93936
 Alpha virt. eigenvalues --    2.98355   3.02430   3.06968   3.11518   3.26540
 Alpha virt. eigenvalues --    3.37310   3.91813   4.02730   4.04646   4.08844
 Alpha virt. eigenvalues --    4.09369   4.11907   4.19053   4.26550   4.31334
 Alpha virt. eigenvalues --    4.40688   4.42418   4.53652   4.71577
          Condensed to atoms (all electrons):
               1          2          3          4          5          6
     1  C    5.022326  -0.048942   0.479139  -0.021550   0.000008   0.462941
     2  C   -0.048942   4.962602  -0.025772   0.545144   0.000212  -0.037977
     3  C    0.479139  -0.025772   4.935617   0.520073   0.000000  -0.015773
     4  C   -0.021550   0.545144   0.520073   4.820978  -0.000003  -0.038592
     5  C    0.000008   0.000212   0.000000  -0.000003   5.270298  -0.000416
     6  C    0.462941  -0.037977  -0.015773  -0.038592  -0.000416   5.239913
     7  C   -0.039030   0.476795  -0.043694  -0.016684   0.003503   0.424913
     8  O    0.000957  -0.000090   0.000767   0.000001   0.000000  -0.082162
     9  O    0.000014   0.001625   0.000016  -0.000469  -0.080764  -0.000541
    10  O    0.006649  -0.000133  -0.000087   0.000011  -0.000121  -0.069354
    11  C   -0.039649   0.005020   0.006234   0.000304  -0.000065   0.234357
    12  C   -0.000014  -0.003103   0.000062  -0.000295   0.376298  -0.002965
    13  O    0.003115  -0.050559   0.000162   0.004442  -0.114761  -0.060218
    14  H   -0.000140   0.000823  -0.000097   0.000003   0.000095   0.008803
    15  H    0.357374   0.000256  -0.038339   0.005080   0.000000  -0.045333
    16  H    0.000662   0.353368   0.005486  -0.036936  -0.000573   0.004549
    17  H   -0.042540   0.004982   0.359010  -0.039588   0.000000   0.003958
    18  H    0.004907  -0.040430  -0.045797   0.360617   0.000000   0.000665
    19  H    0.000000  -0.000009   0.000000   0.000000   0.361860   0.000024
    20  H    0.000000   0.000018   0.000000   0.000000   0.363585   0.000006
    21  H    0.000000   0.000145   0.000000   0.000001   0.354752  -0.000016
               7          8          9         10         11         12
     1  C   -0.039030   0.000957   0.000014   0.006649  -0.039649  -0.000014
     2  C    0.476795  -0.000090   0.001625  -0.000133   0.005020  -0.003103
     3  C   -0.043694   0.000767   0.000016  -0.000087   0.006234   0.000062
     4  C   -0.016684   0.000001  -0.000469   0.000011   0.000304  -0.000295
     5  C    0.003503   0.000000  -0.080764  -0.000121  -0.000065   0.376298
     6  C    0.424913  -0.082162  -0.000541  -0.069354   0.234357  -0.002965
     7  C    4.805428   0.003921   0.006840  -0.003899  -0.020328   0.000598
     8  O    0.003921   8.066722   0.000000  -0.092205   0.553576   0.000002
     9  O    0.006840   0.000000   7.956595  -0.000005  -0.000031   0.593445
    10  O   -0.003899  -0.092205  -0.000005   8.245183   0.264540   0.000897
    11  C   -0.020328   0.553576  -0.000031   0.264540   4.494250   0.000258
    12  C    0.000598   0.000002   0.593445   0.000897   0.000258   4.328425
    13  O    0.146305   0.000020  -0.063774  -0.016401  -0.000412   0.187405
    14  H   -0.010732   0.005108   0.000179   0.213507  -0.032502  -0.000450
    15  H    0.005471   0.015188   0.000000   0.000421  -0.006187  -0.000004
    16  H   -0.040953   0.000000  -0.000255   0.000003  -0.000079   0.002881
    17  H    0.000827  -0.000002   0.000000   0.000000  -0.000144   0.000000
    18  H    0.004866   0.000000  -0.000001   0.000000   0.000012  -0.000024
    19  H   -0.000085   0.000000   0.001719   0.000047   0.000002  -0.014331
    20  H   -0.000079   0.000000   0.003484   0.000000   0.000000  -0.026435
    21  H   -0.000243   0.000000   0.001171   0.000001   0.000004  -0.025998
              13         14         15         16         17         18
     1  C    0.003115  -0.000140   0.357374   0.000662  -0.042540   0.004907
     2  C   -0.050559   0.000823   0.000256   0.353368   0.004982  -0.040430
     3  C    0.000162  -0.000097  -0.038339   0.005486   0.359010  -0.045797
     4  C    0.004442   0.000003   0.005080  -0.036936  -0.039588   0.360617
     5  C   -0.114761   0.000095   0.000000  -0.000573   0.000000   0.000000
     6  C   -0.060218   0.008803  -0.045333   0.004549   0.003958   0.000665
     7  C    0.146305  -0.010732   0.005471  -0.040953   0.000827   0.004866
     8  O    0.000020   0.005108   0.015188   0.000000  -0.000002   0.000000
     9  O   -0.063774   0.000179   0.000000  -0.000255   0.000000  -0.000001
    10  O   -0.016401   0.213507   0.000421   0.000003   0.000000   0.000000
    11  C   -0.000412  -0.032502  -0.006187  -0.000079  -0.000144   0.000012
    12  C    0.187405  -0.000450  -0.000004   0.002881   0.000000  -0.000024
    13  O    8.435927   0.038209  -0.000043  -0.003719   0.000002  -0.000080
    14  H    0.038209   0.345615  -0.000099  -0.000020   0.000000   0.000001
    15  H   -0.000043  -0.000099   0.532512   0.000013  -0.005639  -0.000174
    16  H   -0.003719  -0.000020   0.000013   0.575461  -0.000183  -0.007726
    17  H    0.000002   0.000000  -0.005639  -0.000183   0.577376  -0.005436
    18  H   -0.000080   0.000001  -0.000174  -0.007726  -0.005436   0.580989
    19  H    0.001983   0.000173   0.000000   0.000002   0.000000   0.000000
    20  H    0.004217   0.000003   0.000000   0.000023   0.000000   0.000000
    21  H    0.002951  -0.000013   0.000000   0.000308   0.000000   0.000000
              19         20         21
     1  C    0.000000   0.000000   0.000000
     2  C   -0.000009   0.000018   0.000145
     3  C    0.000000   0.000000   0.000000
     4  C    0.000000   0.000000   0.000001
     5  C    0.361860   0.363585   0.354752
     6  C    0.000024   0.000006  -0.000016
     7  C   -0.000085  -0.000079  -0.000243
     8  O    0.000000   0.000000   0.000000
     9  O    0.001719   0.003484   0.001171
    10  O    0.000047   0.000000   0.000001
    11  C    0.000002   0.000000   0.000004
    12  C   -0.014331  -0.026435  -0.025998
    13  O    0.001983   0.004217   0.002951
    14  H    0.000173   0.000003  -0.000013
    15  H    0.000000   0.000000   0.000000
    16  H    0.000002   0.000023   0.000308
    17  H    0.000000   0.000000   0.000000
    18  H    0.000000   0.000000   0.000000
    19  H    0.491622  -0.025343  -0.019663
    20  H   -0.025343   0.508987  -0.022798
    21  H   -0.019663  -0.022798   0.534587
 Mulliken charges:
               1
     1  C   -0.146224
     2  C   -0.143975
     3  C   -0.137006
     4  C   -0.102535
     5  C   -0.533907
     6  C   -0.026783
     7  C    0.296262
     8  O   -0.471804
     9  O   -0.419245
    10  O   -0.549053
    11  C    0.540840
    12  C    0.583348
    13  O   -0.514771
    14  H    0.431533
    15  H    0.179503
    16  H    0.147687
    17  H    0.147376
    18  H    0.147612
    19  H    0.201999
    20  H    0.194331
    21  H    0.174812
 Sum of Mulliken charges =   0.00000
 Mulliken charges with hydrogens summed into heavy atoms:
               1
     1  C    0.033279
     2  C    0.003712
     3  C    0.010370
     4  C    0.045077
     5  C    0.037235
     6  C   -0.026783
     7  C    0.296262
     8  O   -0.471804
     9  O   -0.419245
    10  O   -0.117520
    11  C    0.540840
    12  C    0.583348
    13  O   -0.514771
 Electronic spatial extent (au):  <R**2>=           2332.3263
 Charge=              0.0000 electrons
 Dipole moment (field-independent basis, Debye):
    X=             -2.7234    Y=              4.1203    Z=             -2.5370  Tot=              5.5525
 Quadrupole moment (field-independent basis, Debye-Ang):
   XX=            -67.4371   YY=            -78.3860   ZZ=            -77.6975
   XY=             12.3352   XZ=              4.1060   YZ=             -1.8593
 Traceless Quadrupole moment (field-independent basis, Debye-Ang):
   XX=              7.0698   YY=             -3.8791   ZZ=             -3.1907
   XY=             12.3352   XZ=              4.1060   YZ=             -1.8593
 Octapole moment (field-independent basis, Debye-Ang**2):
  XXX=            -33.0085  YYY=             37.7514  ZZZ=             -3.1440  XYY=            -20.3193
  XXY=             12.9427  XXZ=            -11.0831  XZZ=              0.3527  YZZ=             -9.8224
  YYZ=             -5.5854  XYZ=              8.6816
 Hexadecapole moment (field-independent basis, Debye-Ang**3):
 XXXX=          -1546.7154 YYYY=          -1106.5945 ZZZZ=           -202.7363 XXXY=             67.0459
 XXXZ=             19.0410 YYYX=             55.1636 YYYZ=             -9.0658 ZZZX=              7.8915
 ZZZY=              3.0645 XXYY=           -478.2627 XXZZ=           -336.0101 YYZZ=           -220.4897
 XXYZ=              8.1762 YYXZ=             -6.2327 ZZXY=             -5.1050
 N-N= 7.801718406486D+02 E-N=-3.074374861477D+03  KE= 6.432690258495D+02
 No NMR shielding tensors so no spin-rotation constants.
 Leave Link  601 at Mon Aug  7 13:00:25 2023, MaxMem=   458752000 cpu:         0.2
 (Enter /opt/apps/apps/binapps/gaussian/g09d01_em64t/g09/l602.exe)
 FitSet:  NAtFit=    21 NAtPot=    21 NAtFrz=     0 MDM=    25 TotChg=   0.00000
 Merz-Kollman atomic radii used.

 **********************************************************************

            Electrostatic Properties Using The SCF Density

 **********************************************************************

       Atomic Center    1 is at   2.274963  0.535822  0.278397
       Atomic Center    2 is at  -0.052112  1.831126 -0.431441
       Atomic Center    3 is at   2.262367  1.910093  0.002829
       Atomic Center    4 is at   1.083543  2.540803 -0.243822
       Atomic Center    5 is at  -3.538415 -0.346168 -0.343379
       Atomic Center    6 is at   1.151417 -0.250208 -0.075849
       Atomic Center    7 is at  -0.057145  0.375533 -0.288843
       Atomic Center    8 is at   2.239280 -2.322504  0.470661
       Atomic Center    9 is at  -2.207896  0.569908  1.434537
       Atomic Center   10 is at   0.321764 -2.424342 -0.570492
       Atomic Center   11 is at   1.218512 -1.716619  0.116881
       Atomic Center   12 is at  -2.247903  0.040449  0.351482
       Atomic Center   13 is at  -1.256349 -0.210076 -0.504068
       Atomic Center   14 is at  -0.299366 -1.698906 -0.784251
       Atomic Center   15 is at   3.203251  0.028391  0.488558
       Atomic Center   16 is at  -0.955019  2.376223 -0.690957
       Atomic Center   17 is at   3.230667  2.427287  0.196074
       Atomic Center   18 is at   1.064101  3.581818 -0.500494
       Atomic Center   19 is at  -3.671129 -1.359728 -0.502803
       Atomic Center   20 is at  -4.354026 -0.015711  0.256486
       Atomic Center   21 is at  -3.564243  0.231747 -1.305256
    1075 points will be used for fitting atomic charges
 Fitting point charges to electrostatic potential
 Charges from ESP fit, RMS=   0.00133 RRMS=   0.06671:
 ESP charges:
               1
     1  C   -0.157775
     2  C   -0.203320
     3  C   -0.077440
     4  C   -0.082847
     5  C   -0.480787
     6  C   -0.072208
     7  C    0.235733
     8  O   -0.450578
     9  O   -0.464313
    10  O   -0.456662
    11  C    0.529549
    12  C    0.711756
    13  O   -0.366144
    14  H    0.350828
    15  H    0.153205
    16  H    0.160581
    17  H    0.115723
    18  H    0.121638
    19  H    0.159914
    20  H    0.139087
    21  H    0.134060
 Sum of ESP charges =   0.00000
 ESP charges with hydrogens summed into heavy atoms:
               1
     1  C   -0.004570
     2  C   -0.042740
     3  C    0.038284
     4  C    0.038791
     5  C   -0.047725
     6  C   -0.072208
     7  C    0.235733
     8  O   -0.450578
     9  O   -0.464313
    10  O   -0.105834
    11  C    0.529549
    12  C    0.711756
    13  O   -0.366144
 Charge=   0.00000 Dipole=    -2.7327     4.1371    -2.5163 Tot=     5.5602
 -----------------------------------------------------------------

              Electrostatic Properties (Atomic Units)

 -----------------------------------------------------------------
    Center     Electric         -------- Electric Field --------
               Potential          X             Y             Z
 -----------------------------------------------------------------
    1 Atom    -14.710487
    2 Atom    -14.707868
    3 Atom    -14.714526
    4 Atom    -14.718651
    5 Atom    -14.717565
    6 Atom    -14.697606
    7 Atom    -14.634654
    8 Atom    -22.343401
    9 Atom    -22.297773
   10 Atom    -22.271706
   11 Atom    -14.608363
   12 Atom    -14.574146
   13 Atom    -22.208232
   14 Atom     -0.950497
   15 Atom     -1.089389
   16 Atom     -1.074109
   17 Atom     -1.084500
   18 Atom     -1.084154
   19 Atom     -1.076625
   20 Atom     -1.092309
   21 Atom     -1.072591
 -----------------------------------------------------------------
 Leave Link  602 at Mon Aug  7 13:00:25 2023, MaxMem=   458752000 cpu:         0.2
 (Enter /opt/apps/apps/binapps/gaussian/g09d01_em64t/g09/l701.exe)
 Compute integral first derivatives.
 ... and contract with generalized density number  0.
 R6Disp: Adding Grimme-D3 dispersion energy 1st derivatives to the gradient.
 Leave Link  701 at Mon Aug  7 13:00:26 2023, MaxMem=   458752000 cpu:         0.2
 (Enter /opt/apps/apps/binapps/gaussian/g09d01_em64t/g09/l702.exe)
 L702 exits ... SP integral derivatives will be done elsewhere.
 Leave Link  702 at Mon Aug  7 13:00:26 2023, MaxMem=   458752000 cpu:         0.1
 (Enter /opt/apps/apps/binapps/gaussian/g09d01_em64t/g09/l703.exe)
 Compute integral first derivatives, UseDBF=F ICtDFT=           0.
 Integral derivatives from FoFJK, PRISM(SPDF).
 Calling FoFJK, ICntrl=      2127 FMM=F ISym2X=0 I1Cent= 0 IOpClX= 0 NMat=1 NMatS=1 NMatT=0.
 FoFJK:  IHMeth= 1 ICntrl=    2127 DoSepK=F KAlg= 0 I1Cent=   0 FoldK=F
 IRaf=         0 NMat=   1 IRICut=       1 DoRegI=T DoRafI=F ISym2E= 0.
 FoFCou: FMM=F IPFlag=           0 FMFlag=      100000 FMFlg1=         800
         NFxFlg=           0 DoJE=F BraDBF=F KetDBF=F FulRan=T
         wScrn=  0.000000 ICntrl=    2127 IOpCl=  0 I1Cent=           0 NGrid=           0
         NMat0=    1 NMatS0=      1 NMatT0=    0 NMatD0=    1 NMtDS0=    0 NMtDT0=    0
 Symmetry not used in FoFCou.
 Leave Link  703 at Mon Aug  7 13:01:05 2023, MaxMem=   458752000 cpu:        39.2
 (Enter /opt/apps/apps/binapps/gaussian/g09d01_em64t/g09/l716.exe)
 Dipole        =-1.07148306D+00 1.62104044D+00-9.98144714D-01
 ***** Axes restored to original set *****
 -------------------------------------------------------------------
 Center     Atomic                   Forces (Hartrees/Bohr)
 Number     Number              X              Y              Z
 -------------------------------------------------------------------
      1        6           0.006548142    0.018932806   -0.031654780
      2        6          -0.023008549   -0.045492595   -0.018665075
      3        6           0.043037020   -0.038659187    0.044532624
      4        6           0.003567266    0.029773867   -0.013995921
      5        6           0.005992145    0.052402621    0.010804859
      6        6          -0.015739743   -0.018351014    0.037930841
      7        6           0.016871579    0.094922324    0.028036446
      8        8          -0.031418144    0.022071049    0.012945944
      9        8           0.020927879   -0.000714220   -0.002944881
     10        8          -0.031783121    0.015649680    0.000977589
     11        6           0.089266235   -0.037460443   -0.011220934
     12        6          -0.065007611   -0.003682581   -0.001090496
     13        8           0.024242107   -0.017789422   -0.017646483
     14        1          -0.011560351   -0.019440933   -0.025073813
     15        1           0.000244531   -0.005329989    0.003427273
     16        1          -0.003751944   -0.007022185   -0.002210046
     17        1          -0.015618615    0.002028528   -0.011976228
     18        1          -0.001677601    0.010598497    0.008249607
     19        1           0.009104727   -0.039082597   -0.024352211
     20        1          -0.017295389    0.003240124    0.009198952
     21        1          -0.002940562   -0.016594327    0.004726732
 -------------------------------------------------------------------
 Cartesian Forces:  Max     0.094922324 RMS     0.027833106
 Z-matrix is all fixed cartesians, so copy forces.
 Leave Link  716 at Mon Aug  7 13:01:05 2023, MaxMem=   458752000 cpu:         0.1
 (Enter /opt/apps/apps/binapps/gaussian/g09d01_em64t/g09/l103.exe)

 GradGradGradGradGradGradGradGradGradGradGradGradGradGradGradGradGradGrad
 Berny optimization.
 Search for a local minimum.
 Step number   1 out of a maximum of    2
 All quantities printed in internal units (Hartrees-Bohrs-Radians)
 Second derivative matrix not updated -- first step.
 ITU=  0
     Eigenvalues ---    0.00113   0.00138   0.00147   0.00304   0.00488
     Eigenvalues ---    0.00622   0.00942   0.01318   0.01600   0.02839
     Eigenvalues ---    0.03027   0.03535   0.03886   0.04251   0.05266
     Eigenvalues ---    0.05682   0.06696   0.07151   0.07617   0.07788
     Eigenvalues ---    0.08350   0.09549   0.10501   0.12783   0.12863
     Eigenvalues ---    0.13433   0.14255   0.15047   0.15512   0.19055
     Eigenvalues ---    0.20861   0.21710   0.24976   0.28179   0.30745
     Eigenvalues ---    0.33394   0.40987   0.44265   0.47999   0.49901
     Eigenvalues ---    0.63981   0.72080   0.77780   0.90446   0.96194
     Eigenvalues ---    1.02143   1.07741   1.12957   1.17908   1.20222
     Eigenvalues ---    1.36678   1.42282   1.55718   1.62337   1.76912
     Eigenvalues ---    2.08730   2.41514
 Quadratic step=2.433D+00 exceeds max=3.000D-01 adjusted using Lamda=-2.083D-01.
 Angle between NR and scaled steps=  62.69 degrees.
 Angle between quadratic step and forces=  38.07 degrees.
 Linear search not attempted -- first point.
 TrRot=  0.000000  0.000000  0.000000  0.000000  0.000000  0.000000
 MatCor failed.
 Variable       Old X    -DE/DX   Delta X   Delta X   Delta X     New X
                                 (Linear)    (Quad)   (Total)
    X1       26.79853   0.00655   0.00000   0.03598   0.03598  26.83451
    Y1       23.98592   0.01893   0.00000   0.00970   0.00970  23.99562
    Z1       25.12555  -0.03165   0.00000  -0.04115  -0.04115  25.08439
    X2       22.74647  -0.02301   0.00000  -0.02248  -0.02248  22.72399
    Y2       26.75575  -0.04549   0.00000  -0.00949  -0.00949  26.74626
    Z2       23.38254  -0.01867   0.00000  -0.01183  -0.01183  23.37070
    X3       26.69823   0.04304   0.00000   0.02826   0.02826  26.72649
    Y3       26.61534  -0.03866   0.00000  -0.03095  -0.03095  26.58439
    Z3       25.42927   0.04453   0.00000   0.05381   0.05381  25.48308
    X4       24.59112   0.00357   0.00000   0.01851   0.01851  24.60963
    Y4       27.90587   0.02977   0.00000   0.02341   0.02341  27.92928
    Z4       24.72581  -0.01400   0.00000  -0.02507  -0.02507  24.70074
    X5       16.73921   0.00599   0.00000  -0.03278  -0.03278  16.70643
    Y5       22.83399   0.05240   0.00000   0.02846   0.02846  22.86245
    Z5       20.40038   0.01080   0.00000  -0.00590  -0.00590  20.39447
    X6       25.07442  -0.01574   0.00000  -0.02759  -0.02759  25.04682
    Y6       22.79739  -0.01835   0.00000  -0.01048  -0.01048  22.78691
    Z6       23.45903   0.03793   0.00000   0.07148   0.07148  23.53051
    X7       22.89683   0.01687   0.00000   0.00517   0.00517  22.90200
    Y7       24.05938   0.09492   0.00000   0.08414   0.08414  24.14352
    Z7       22.79442   0.02804   0.00000   0.03849   0.03849  22.83291
    X8       27.09258  -0.03142   0.00000  -0.00284  -0.00284  27.08974
    Y8       18.74337   0.02207   0.00000  -0.00673  -0.00673  18.73664
    Z8       23.80592   0.01295   0.00000   0.06641   0.06641  23.87232
    X9       18.07911   0.02093   0.00000   0.03524   0.03524  18.11434
    Y9       23.41018  -0.00071   0.00000  -0.01247  -0.01247  23.39772
    Z9       24.69914  -0.00294   0.00000  -0.00543  -0.00543  24.69371
   X10       24.17765  -0.03178   0.00000  -0.05946  -0.05946  24.11819
   Y10       19.19805   0.01565   0.00000  -0.00184  -0.00184  19.19620
   Z10       20.91890   0.00098   0.00000   0.00125   0.00125  20.92015
   X11       25.33109   0.08927   0.00000   0.12511   0.12511  25.45620
   Y11       20.05113  -0.03746   0.00000  -0.00091  -0.00091  20.05022
   Z11       22.99000  -0.01122   0.00000  -0.07776  -0.07776  22.91224
   X12       18.65303  -0.06501   0.00000  -0.05686  -0.05686  18.59617
   Y12       23.10222  -0.00368   0.00000  -0.00706  -0.00706  23.09516
   Z12       22.51478  -0.00109   0.00000  -0.02458  -0.02458  22.49021
   X13       20.93156   0.02424   0.00000   0.01836   0.01836  20.94993
   Y13       23.14893  -0.01779   0.00000  -0.01162  -0.01162  23.13731
   Z13       21.44002  -0.01765   0.00000   0.00115   0.00115  21.44117
   X14       23.04781  -0.01156   0.00000  -0.06843  -0.06843  22.97937
   Y14       20.63309  -0.01944   0.00000  -0.04833  -0.04833  20.58476
   Z14       20.62854  -0.02507   0.00000  -0.09528  -0.09528  20.53326
   X15       28.45128   0.00024   0.00000   0.00724   0.00724  28.45853
   Y15       22.94091  -0.00533   0.00000  -0.01892  -0.01892  22.92199
   Z15       25.70073   0.00343   0.00000  -0.00544  -0.00544  25.69529
   X16       21.15920  -0.00375   0.00000  -0.02909  -0.02909  21.13011
   Y16       27.89732  -0.00702   0.00000  -0.03026  -0.03026  27.86706
   Z16       22.75782  -0.00221   0.00000  -0.01445  -0.01445  22.74337
   X17       28.26789  -0.01562   0.00000  -0.01795  -0.01795  28.24994
   Y17       27.41852   0.00203   0.00000   0.01021   0.01021  27.42873
   Z17       26.58162  -0.01198   0.00000  -0.00244  -0.00244  26.57917
   X18       24.52206  -0.00168   0.00000  -0.00328  -0.00328  24.51878
   Y18       29.92616   0.01060   0.00000   0.03080   0.03080  29.95696
   Z18       24.86817   0.00825   0.00000   0.02171   0.02171  24.88988
   X19       16.74414   0.00910   0.00000   0.02262   0.02262  16.76676
   Y19       21.11112  -0.03908   0.00000  -0.04613  -0.04613  21.06499
   Z19       19.47630  -0.02435   0.00000  -0.03930  -0.03930  19.43700
   X20       14.89889  -0.01730   0.00000  -0.05117  -0.05117  14.84772
   Y20       23.08031   0.00324   0.00000   0.00945   0.00945  23.08976
   Z20       21.17694   0.00920   0.00000   0.01625   0.01625  21.19319
   X21       17.09843  -0.00294   0.00000  -0.01491  -0.01491  17.08352
   Y21       24.44117  -0.01659   0.00000  -0.02710  -0.02710  24.41408
   Z21       19.06360   0.00473   0.00000  -0.00515  -0.00515  19.05845
         Item               Value     Threshold  Converged?
 Maximum Force            0.094922     0.000450     NO 
 RMS     Force            0.027833     0.000300     NO 
 Maximum Displacement     0.125109     0.001800     NO 
 RMS     Displacement     0.037896     0.001200     NO 
 Predicted change in Energy=-3.558231D-02
 GradGradGradGradGradGradGradGradGradGradGradGradGradGradGradGradGradGrad

 Leave Link  103 at Mon Aug  7 13:01:05 2023, MaxMem=   458752000 cpu:         0.0
 (Enter /opt/apps/apps/binapps/gaussian/g09d01_em64t/g09/l9999.exe)
 1\1\GINC-NODE611\Force\RB3LYP\6-31G(d)\C9H8O4\MBDX6CW3\07-Aug-2023\0\\
 #p b3lyp/6-31g* pop=mk empiricaldispersion=gd3 int(ultrafine) force\\a
 spirin\\0,1\C,14.18117046,12.69280314,13.29586625\C,12.03691244,14.158
 53262,12.37350464\C,14.12809372,14.08422947,13.45659256\C,13.0130589,1
 4.76714969,13.08433414\C,8.85800958,12.08322763,10.79541564\C,13.26881
 051,12.06385732,12.41398454\C,12.11647987,12.73167491,12.06228614\O,14
 .33677554,9.91856396,12.59754896\O,9.56705034,12.388134,13.07022452\O,
 12.79426098,10.15916824,11.06980681\C,13.404634,10.61060071,12.1657824
 5\C,9.87075686,12.22516775,11.91430926\O,11.07650638,12.2498858,11.345
 5689\H,12.19637394,10.91855884,10.916152\H,15.05576968,12.13980675,13.
 60024095\H,11.19696856,14.76262569,12.04291821\H,14.9587214,14.5092570
 8,14.06638503\H,12.97651649,15.83624244,13.15967083\H,8.86061847,11.17
 152452,10.30641437\H,7.88415194,12.21357584,11.20635509\H,9.04809713,1
 2.93371201,10.08802295\\Version=ES64L-G09RevD.01\State=1-A\HF=-648.657
 0463\RMSD=8.114e-09\RMSF=2.783e-02\Dipole=-0.8900926,1.8583025,-0.7256
 637\Quadrupole=1.4641343,-2.0983616,0.6342273,7.7571015,7.1783996,0.97
 22278\PG=C01 [X(C9H8O4)]\\@


 CURIOUSER AND CURIOUSER

                  -- ALICE, IN WONDERLAND
 Job cpu time:       0 days  0 hours  3 minutes  7.0 seconds.
 File lengths (MBytes):  RWF=     20 Int=      0 D2E=      0 Chk=      3 Scr=      1
 Normal termination of Gaussian 09 at Mon Aug  7 13:01:05 2023.
