 Entering Gaussian System, Link 0=/opt/apps/apps/binapps/gaussian/g09d01_em64t/g09/g09
 Initial command:
 /opt/apps/apps/binapps/gaussian/g09d01_em64t/g09/l1.exe "/net/scratch2/mbdx6cw3/aspirin/300K-meta/dft/qm_input/gau_temp_13/Gau-16338.inp" -scrdir="/net/scratch2/mbdx6cw3/aspirin/300K-meta/dft/qm_input/gau_temp_13/"
 Entering Link 1 = /opt/apps/apps/binapps/gaussian/g09d01_em64t/g09/l1.exe PID=     16339.
  
 Copyright (c) 1988,1990,1992,1993,1995,1998,2003,2009,2013,
            Gaussian, Inc.  All Rights Reserved.
  
 This is part of the Gaussian(R) 09 program.  It is based on
 the Gaussian(R) 03 system (copyright 2003, Gaussian, Inc.),
 the Gaussian(R) 98 system (copyright 1998, Gaussian, Inc.),
 the Gaussian(R) 94 system (copyright 1995, Gaussian, Inc.),
 the Gaussian 92(TM) system (copyright 1992, Gaussian, Inc.),
 the Gaussian 90(TM) system (copyright 1990, Gaussian, Inc.),
 the Gaussian 88(TM) system (copyright 1988, Gaussian, Inc.),
 the Gaussian 86(TM) system (copyright 1986, Carnegie Mellon
 University), and the Gaussian 82(TM) system (copyright 1983,
 Carnegie Mellon University). Gaussian is a federally registered
 trademark of Gaussian, Inc.
  
 This software contains proprietary and confidential information,
 including trade secrets, belonging to Gaussian, Inc.
  
 This software is provided under written license and may be
 used, copied, transmitted, or stored only in accord with that
 written license.
  
 The following legend is applicable only to US Government
 contracts under FAR:
  
                    RESTRICTED RIGHTS LEGEND
  
 Use, reproduction and disclosure by the US Government is
 subject to restrictions as set forth in subparagraphs (a)
 and (c) of the Commercial Computer Software - Restricted
 Rights clause in FAR 52.227-19.
  
 Gaussian, Inc.
 340 Quinnipiac St., Bldg. 40, Wallingford CT 06492
  
  
 ---------------------------------------------------------------
 Warning -- This program may not be used in any manner that
 competes with the business of Gaussian, Inc. or will provide
 assistance to any competitor of Gaussian, Inc.  The licensee
 of this program is prohibited from giving any competitor of
 Gaussian, Inc. access to this program.  By using this program,
 the user acknowledges that Gaussian, Inc. is engaged in the
 business of creating and licensing software in the field of
 computational chemistry and represents and warrants to the
 licensee that it is not a competitor of Gaussian, Inc. and that
 it will not use this program in any manner prohibited above.
 ---------------------------------------------------------------
  

 Cite this work as:
 Gaussian 09, Revision D.01,
 M. J. Frisch, G. W. Trucks, H. B. Schlegel, G. E. Scuseria, 
 M. A. Robb, J. R. Cheeseman, G. Scalmani, V. Barone, B. Mennucci, 
 G. A. Petersson, H. Nakatsuji, M. Caricato, X. Li, H. P. Hratchian, 
 A. F. Izmaylov, J. Bloino, G. Zheng, J. L. Sonnenberg, M. Hada, 
 M. Ehara, K. Toyota, R. Fukuda, J. Hasegawa, M. Ishida, T. Nakajima, 
 Y. Honda, O. Kitao, H. Nakai, T. Vreven, J. A. Montgomery, Jr., 
 J. E. Peralta, F. Ogliaro, M. Bearpark, J. J. Heyd, E. Brothers, 
 K. N. Kudin, V. N. Staroverov, T. Keith, R. Kobayashi, J. Normand, 
 K. Raghavachari, A. Rendell, J. C. Burant, S. S. Iyengar, J. Tomasi, 
 M. Cossi, N. Rega, J. M. Millam, M. Klene, J. E. Knox, J. B. Cross, 
 V. Bakken, C. Adamo, J. Jaramillo, R. Gomperts, R. E. Stratmann, 
 O. Yazyev, A. J. Austin, R. Cammi, C. Pomelli, J. W. Ochterski, 
 R. L. Martin, K. Morokuma, V. G. Zakrzewski, G. A. Voth, 
 P. Salvador, J. J. Dannenberg, S. Dapprich, A. D. Daniels, 
 O. Farkas, J. B. Foresman, J. V. Ortiz, J. Cioslowski, 
 and D. J. Fox, Gaussian, Inc., Wallingford CT, 2013.
 
 ******************************************
 Gaussian 09:  ES64L-G09RevD.01 24-Apr-2013
                 7-Aug-2023 
 ******************************************
 %chk=./gau_temp_13/mol_chk.chk
 %mem=3500MB
 -------------------------------------------------------------------
 #p b3lyp/6-31g* pop=mk empiricaldispersion=gd3 int(ultrafine) force
 -------------------------------------------------------------------
 1/10=7,30=1,38=1/1,3;
 2/12=2,17=6,18=5,40=1/2;
 3/5=1,6=6,7=1,11=2,16=1,25=1,30=1,71=1,74=-5,75=-5,124=31/1,2,3;
 4//1;
 5/5=2,38=5/2;
 6/7=2,8=2,9=2,10=2,15=8,20=1,28=1/1,2;
 7/29=1/1,2,3,16;
 1/10=7,30=1/3;
 99//99;
 Leave Link    1 at Mon Aug  7 13:04:08 2023, MaxMem=   458752000 cpu:         0.0
 (Enter /opt/apps/apps/binapps/gaussian/g09d01_em64t/g09/l101.exe)
 -------
 aspirin
 -------
 Symbolic Z-matrix:
 Charge =  0 Multiplicity = 1
 C                     14.32827   13.13571   11.9132 
 C                     11.69044   14.09385   11.95883 
 C                     14.0675   14.4524   11.54301 
 C                     12.77788   14.87206   11.64746 
 C                     9.15093   10.64745   12.5698 
 C                     13.30881   12.26871   12.37117 
 C                     12.01166   12.78705   12.27613 
 O                     14.60253   10.31044   12.29249 
 O                     9.30843   12.75089   11.34112 
 O                     12.84877   10.28567   13.61703 
 C                     13.63238   10.86598   12.71293 
 C                     9.79697   11.94167   12.09783 
 O                     11.0745   11.88065   12.50543 
 H                     12.1801   10.97268   13.61093 
 H                     15.3763   12.74592   11.90944 
 H                     10.62667   14.48547   12.08274 
 H                     14.85501   15.12506   11.28273 
 H                     12.58281   15.88835   11.47114 
 H                     9.62446   9.88819   11.96759 
 H                     9.25189   10.59362   13.59257 
 H                     8.0815    10.85506   12.36495 
 
 NAtoms=     21 NQM=       21 NQMF=       0 NMMI=      0 NMMIF=      0
                NMic=       0 NMicF=      0.
                    Isotopes and Nuclear Properties:
 (Nuclear quadrupole moments (NQMom) in fm**2, nuclear magnetic moments (NMagM)
  in nuclear magnetons)

  Atom         1           2           3           4           5           6           7           8           9          10
 IAtWgt=          12          12          12          12          12          12          12          16          16          16
 AtmWgt=  12.0000000  12.0000000  12.0000000  12.0000000  12.0000000  12.0000000  12.0000000  15.9949146  15.9949146  15.9949146
 NucSpn=           0           0           0           0           0           0           0           0           0           0
 AtZEff=   0.0000000   0.0000000   0.0000000   0.0000000   0.0000000   0.0000000   0.0000000   0.0000000   0.0000000   0.0000000
 NQMom=    0.0000000   0.0000000   0.0000000   0.0000000   0.0000000   0.0000000   0.0000000   0.0000000   0.0000000   0.0000000
 NMagM=    0.0000000   0.0000000   0.0000000   0.0000000   0.0000000   0.0000000   0.0000000   0.0000000   0.0000000   0.0000000
 AtZNuc=   6.0000000   6.0000000   6.0000000   6.0000000   6.0000000   6.0000000   6.0000000   8.0000000   8.0000000   8.0000000

  Atom        11          12          13          14          15          16          17          18          19          20
 IAtWgt=          12          12          16           1           1           1           1           1           1           1
 AtmWgt=  12.0000000  12.0000000  15.9949146   1.0078250   1.0078250   1.0078250   1.0078250   1.0078250   1.0078250   1.0078250
 NucSpn=           0           0           0           1           1           1           1           1           1           1
 AtZEff=   0.0000000   0.0000000   0.0000000   0.0000000   0.0000000   0.0000000   0.0000000   0.0000000   0.0000000   0.0000000
 NQMom=    0.0000000   0.0000000   0.0000000   0.0000000   0.0000000   0.0000000   0.0000000   0.0000000   0.0000000   0.0000000
 NMagM=    0.0000000   0.0000000   0.0000000   2.7928460   2.7928460   2.7928460   2.7928460   2.7928460   2.7928460   2.7928460
 AtZNuc=   6.0000000   6.0000000   8.0000000   1.0000000   1.0000000   1.0000000   1.0000000   1.0000000   1.0000000   1.0000000

  Atom        21
 IAtWgt=           1
 AtmWgt=   1.0078250
 NucSpn=           1
 AtZEff=   0.0000000
 NQMom=    0.0000000
 NMagM=    2.7928460
 AtZNuc=   1.0000000
 Leave Link  101 at Mon Aug  7 13:04:09 2023, MaxMem=   458752000 cpu:         0.1
 (Enter /opt/apps/apps/binapps/gaussian/g09d01_em64t/g09/l103.exe)

 GradGradGradGradGradGradGradGradGradGradGradGradGradGradGradGradGradGrad
 Berny optimization.
 Initialization pass.
 Trust Radius=3.00D-01 FncErr=1.00D-07 GrdErr=1.00D-07
 Number of steps in this run=      2 maximum allowed number of steps=      2.
 GradGradGradGradGradGradGradGradGradGradGradGradGradGradGradGradGradGrad

 Leave Link  103 at Mon Aug  7 13:04:09 2023, MaxMem=   458752000 cpu:         0.0
 (Enter /opt/apps/apps/binapps/gaussian/g09d01_em64t/g09/l202.exe)
                          Input orientation:                          
 ---------------------------------------------------------------------
 Center     Atomic      Atomic             Coordinates (Angstroms)
 Number     Number       Type             X           Y           Z
 ---------------------------------------------------------------------
      1          6           0       14.328270   13.135712   11.913199
      2          6           0       11.690443   14.093846   11.958832
      3          6           0       14.067501   14.452401   11.543013
      4          6           0       12.777878   14.872057   11.647460
      5          6           0        9.150929   10.647453   12.569803
      6          6           0       13.308810   12.268707   12.371173
      7          6           0       12.011664   12.787050   12.276133
      8          8           0       14.602530   10.310440   12.292490
      9          8           0        9.308432   12.750890   11.341125
     10          8           0       12.848774   10.285668   13.617033
     11          6           0       13.632377   10.865982   12.712927
     12          6           0        9.796968   11.941673   12.097826
     13          8           0       11.074499   11.880653   12.505430
     14          1           0       12.180104   10.972677   13.610932
     15          1           0       15.376296   12.745917   11.909440
     16          1           0       10.626668   14.485471   12.082738
     17          1           0       14.855013   15.125060   11.282735
     18          1           0       12.582814   15.888349   11.471137
     19          1           0        9.624462    9.888191   11.967591
     20          1           0        9.251890   10.593623   13.592571
     21          1           0        8.081499   10.855056   12.364954
 ---------------------------------------------------------------------
                    Distance matrix (angstroms):
                    1          2          3          4          5
     1  C    0.000000
     2  C    2.806820   0.000000
     3  C    1.392375   2.439646   0.000000
     4  C    2.342910   1.372982   1.360201   0.000000
     5  C    5.781645   4.324354   6.301159   5.643824   0.000000
     6  C    1.414474   2.473919   2.455603   2.753740   4.467201
     7  C    2.370643   1.382599   2.745419   2.308586   3.584399
     8  O    2.863781   4.785994   4.243090   4.955176   5.469043
     9  O    5.066964   2.803402   5.058125   4.078020   2.441087
    10  O    3.635204   4.312027   4.811291   4.991914   3.860263
    11  C    2.505096   3.841729   3.797425   4.232497   4.489055
    12  C    4.689618   2.869916   4.984880   4.204261   1.521556
    13  O    3.537363   2.361436   4.061797   3.547691   2.285836
    14  H    3.489359   3.565234   4.466210   4.406554   3.219568
    15  H    1.118174   3.924904   2.181583   3.367623   6.602637
    16  H    3.943660   1.140324   3.483063   2.228592   4.140703
    17  H    2.152312   3.396324   1.067890   2.124035   7.364922
    18  H    3.289232   2.062623   2.066738   1.049756   6.360180
    19  H    5.716219   4.685711   6.383798   5.906390   1.078597
    20  H    5.920485   4.568064   6.502382   5.875462   1.029148
    21  H    6.665405   4.866125   7.031977   6.221501   1.108487
                    6          7          8          9         10
     6  C    0.000000
     7  C    1.400107   0.000000
     8  O    2.348342   3.584195   0.000000
     9  O    4.158909   2.860596   5.906637   0.000000
    10  O    2.386680   2.958999   2.197882   4.877612   0.000000
    11  C    1.479571   2.551079   1.194399   4.912354   1.329739
    12  C    3.537613   2.377253   5.078606   1.210825   3.789968
    13  O    2.271730   1.323787   3.867546   2.287337   2.632050
    14  H    2.119120   2.258762   2.836370   4.069467   0.958717
    15  H    2.171503   3.384805   2.583987   6.094422   3.918809
    16  H    3.491580   2.200057   5.769087   2.301414   4.993011
    17  H    3.425521   3.812842   4.925842   6.033626   5.735299
    18  H    3.799861   3.254579   5.988902   4.536752   6.005467
    19  H    4.405015   3.767933   5.006498   2.947436   3.643465
    20  H    4.555911   3.763042   5.513597   3.118655   3.610126
    21  H    5.415093   4.380261   6.544135   2.479472   4.961736
                   11         12         13         14         15
    11  C    0.000000
    12  C    4.030611   0.000000
    13  O    2.759593   1.342367   0.000000
    14  H    1.710817   2.984590   1.808015   0.000000
    15  H    2.687192   5.640142   4.428244   4.031761   0.000000
    16  H    4.746803   2.675732   2.676621   4.133795   5.061131
    17  H    4.656183   6.031761   5.129663   5.460579   2.514919
    18  H    5.278996   4.871337   4.405270   5.376311   4.227355
    19  H    4.192253   2.064826   2.522257   3.226141   6.422895
    20  H    4.476229   2.085332   2.481980   2.952704   6.706240
    21  H    5.561786   2.048152   3.166959   4.285424   7.549630
                   16         17         18         19         20
    16  H    0.000000
    17  H    4.350630   0.000000
    18  H    2.483672   2.404370   0.000000
    19  H    4.706661   7.433202   6.708219   0.000000
    20  H    4.395008   7.567315   6.605275   1.810250   0.000000
    21  H    4.442685   8.079890   6.811371   1.863722   1.716160
                   21
    21  H    0.000000
 Stoichiometry    C9H8O4
 Framework group  C1[X(C9H8O4)]
 Deg. of freedom    57
 Full point group                 C1      NOp   1
 Largest Abelian subgroup         C1      NOp   1
 Largest concise Abelian subgroup C1      NOp   1
                         Standard orientation:                         
 ---------------------------------------------------------------------
 Center     Atomic      Atomic             Coordinates (Angstroms)
 Number     Number       Type             X           Y           Z
 ---------------------------------------------------------------------
      1          6           0        2.360465   -0.353189    0.152907
      2          6           0        0.048693   -1.877535   -0.305693
      3          6           0        2.451681   -1.741281    0.093002
      4          6           0        1.306520   -2.416608   -0.194556
      5          6           0       -3.295003    0.842792    0.040081
      6          6           0        1.141275    0.329235   -0.067569
      7          6           0        0.020158   -0.499620   -0.195621
      8          8           0        1.902282    2.427306    0.662964
      9          8           0       -2.573291   -1.426312    0.577859
     10          8           0        0.156683    2.417505   -0.672505
     11          6           0        1.090069    1.803359    0.048480
     12          6           0       -2.329019   -0.329612    0.126552
     13          8           0       -1.121918    0.169637   -0.182651
     14          1           0       -0.316970    1.617579   -0.906832
     15          1           0        3.276185    0.265218    0.324208
     16          1           0       -0.885702   -2.464832   -0.592622
     17          1           0        3.391177   -2.242543    0.173457
     18          1           0        1.379379   -3.453026   -0.344613
     19          1           0       -3.008523    1.474534    0.866037
     20          1           0       -3.244123    1.230015   -0.912082
     21          1           0       -4.270508    0.322711    0.121620
 ---------------------------------------------------------------------
 Rotational constants (GHZ):      1.0581246      0.7653628      0.4652879
 Leave Link  202 at Mon Aug  7 13:04:09 2023, MaxMem=   458752000 cpu:         0.0
 (Enter /opt/apps/apps/binapps/gaussian/g09d01_em64t/g09/l301.exe)
 Standard basis: 6-31G(d) (6D, 7F)
 Ernie: Thresh=  0.10000D-02 Tol=  0.10000D-05 Strict=F.
 There are   211 symmetry adapted cartesian basis functions of A   symmetry.
 There are   211 symmetry adapted basis functions of A   symmetry.
   211 basis functions,   396 primitive gaussians,   211 cartesian basis functions
    47 alpha electrons       47 beta electrons
       nuclear repulsion energy       784.7774428443 Hartrees.
 IExCor=  402 DFT=T Ex+Corr=B3LYP ExCW=0 ScaHFX=  0.200000
 ScaDFX=  0.800000  0.720000  1.000000  0.810000 ScalE2=  1.000000  1.000000
 IRadAn=      5 IRanWt=     -1 IRanGd=            0 ICorTp=0 IEmpDi=131
 NAtoms=   21 NActive=   21 NUniq=   21 SFac= 1.00D+00 NAtFMM=   60 NAOKFM=F Big=F
 Integral buffers will be    131072 words long.
 Raffenetti 2 integral format.
 Two-electron integral symmetry is turned on.
 R6Disp:  Grimme-D3 Dispersion energy=       -0.0177732856 Hartrees.
 Nuclear repulsion after empirical dispersion term =      784.7596695588 Hartrees.
 Leave Link  301 at Mon Aug  7 13:04:09 2023, MaxMem=   458752000 cpu:         0.0
 (Enter /opt/apps/apps/binapps/gaussian/g09d01_em64t/g09/l302.exe)
 NPDir=0 NMtPBC=     1 NCelOv=     1 NCel=       1 NClECP=     1 NCelD=      1
         NCelK=      1 NCelE2=     1 NClLst=     1 CellRange=     0.0.
 One-electron integrals computed using PRISM.
 NBasis=   211 RedAO= T EigKep=  4.70D-04  NBF=   211
 NBsUse=   211 1.00D-06 EigRej= -1.00D+00 NBFU=   211
 Precomputing XC quadrature grid using
 IXCGrd= 4 IRadAn=           5 IRanWt=          -1 IRanGd=           0 AccXCQ= 0.00D+00.
 Generated NRdTot=       0 NPtTot=           0 NUsed=           0 NTot=          32
 NSgBfM=   210   210   210   210   210 MxSgAt=    21 MxSgA2=    21.
 Leave Link  302 at Mon Aug  7 13:04:09 2023, MaxMem=   458752000 cpu:         0.7
 (Enter /opt/apps/apps/binapps/gaussian/g09d01_em64t/g09/l303.exe)
 DipDrv:  MaxL=1.
 Leave Link  303 at Mon Aug  7 13:04:09 2023, MaxMem=   458752000 cpu:         0.0
 (Enter /opt/apps/apps/binapps/gaussian/g09d01_em64t/g09/l401.exe)
 ExpMin= 1.61D-01 ExpMax= 5.48D+03 ExpMxC= 8.25D+02 IAcc=3 IRadAn=         5 AccDes= 0.00D+00
 Harris functional with IExCor=  402 and IRadAn=       5 diagonalized for initial guess.
 HarFok:  IExCor=  402 AccDes= 0.00D+00 IRadAn=         5 IDoV= 1 UseB2=F ITyADJ=14
 ICtDFT=  3500011 ScaDFX=  1.000000  1.000000  1.000000  1.000000
 FoFCou: FMM=F IPFlag=           0 FMFlag=      100000 FMFlg1=           0
         NFxFlg=           0 DoJE=T BraDBF=F KetDBF=T FulRan=T
         wScrn=  0.000000 ICntrl=     500 IOpCl=  0 I1Cent=   200000004 NGrid=           0
         NMat0=    1 NMatS0=      1 NMatT0=    0 NMatD0=    1 NMtDS0=    0 NMtDT0=    0
 Petite list used in FoFCou.
 Harris En= -648.707337287923    
 JPrj=0 DoOrth=F DoCkMO=F.
 Leave Link  401 at Mon Aug  7 13:04:18 2023, MaxMem=   458752000 cpu:         8.4
 (Enter /opt/apps/apps/binapps/gaussian/g09d01_em64t/g09/l502.exe)
 Closed shell SCF:
 Using DIIS extrapolation, IDIIS=  1040.
 Integral symmetry usage will be decided dynamically.
 Keep R1 ints in memory in canonical form, NReq=255049085.
 IVT=      154966 IEndB=      154966 NGot=   458752000 MDV=   208466874
 LenX=   208466874 LenY=   208421912
 Requested convergence on RMS density matrix=1.00D-08 within 128 cycles.
 Requested convergence on MAX density matrix=1.00D-06.
 Requested convergence on             energy=1.00D-06.
 No special actions if energy rises.
 FoFCou: FMM=F IPFlag=           0 FMFlag=           0 FMFlg1=           0
         NFxFlg=           0 DoJE=F BraDBF=F KetDBF=F FulRan=T
         wScrn=  0.000000 ICntrl=     600 IOpCl=  0 I1Cent=           0 NGrid=           0
         NMat0=    1 NMatS0=  22366 NMatT0=    0 NMatD0=    1 NMtDS0=    0 NMtDT0=    0
 Symmetry not used in FoFCou.
 Integral accuracy reduced to 1.0D-05 until final iterations.

 Cycle   1  Pass 0  IDiag  1:
 E= -648.290824934734    
 DIIS: error= 2.79D-02 at cycle   1 NSaved=   1.
 NSaved= 1 IEnMin= 1 EnMin= -648.290824934734     IErMin= 1 ErrMin= 2.79D-02
 ErrMax= 2.79D-02  0.00D+00 EMaxC= 1.00D-01 BMatC= 4.29D-01 BMatP= 4.29D-01
 IDIUse=3 WtCom= 7.21D-01 WtEn= 2.79D-01
 Coeff-Com:  0.100D+01
 Coeff-En:   0.100D+01
 Coeff:      0.100D+01
 Gap=     0.232 Goal=   None    Shift=    0.000
 GapD=    0.232 DampG=1.000 DampE=0.500 DampFc=0.5000 IDamp=-1.
 Damping current iteration by 5.00D-01
 RMSDP=7.61D-03 MaxDP=2.06D-01              OVMax= 2.66D-01

 Cycle   2  Pass 0  IDiag  1:
 E= -648.357091896700     Delta-E=       -0.066266961966 Rises=F Damp=T
 DIIS: error= 1.63D-02 at cycle   2 NSaved=   2.
 NSaved= 2 IEnMin= 2 EnMin= -648.357091896700     IErMin= 2 ErrMin= 1.63D-02
 ErrMax= 1.63D-02  0.00D+00 EMaxC= 1.00D-01 BMatC= 9.56D-02 BMatP= 4.29D-01
 IDIUse=3 WtCom= 8.37D-01 WtEn= 1.63D-01
 Coeff-Com:  0.268D+00 0.732D+00
 Coeff-En:   0.413D+00 0.587D+00
 Coeff:      0.291D+00 0.709D+00
 Gap=     0.213 Goal=   None    Shift=    0.000
 RMSDP=2.56D-03 MaxDP=6.44D-02 DE=-6.63D-02 OVMax= 2.22D-01

 Cycle   3  Pass 0  IDiag  1:
 E= -648.596960277222     Delta-E=       -0.239868380522 Rises=F Damp=F
 DIIS: error= 1.31D-02 at cycle   3 NSaved=   3.
 NSaved= 3 IEnMin= 3 EnMin= -648.596960277222     IErMin= 3 ErrMin= 1.31D-02
 ErrMax= 1.31D-02  0.00D+00 EMaxC= 1.00D-01 BMatC= 7.34D-02 BMatP= 9.56D-02
 IDIUse=3 WtCom= 8.69D-01 WtEn= 1.31D-01
 Coeff-Com:  0.101D+00 0.454D+00 0.445D+00
 Coeff-En:   0.000D+00 0.000D+00 0.100D+01
 Coeff:      0.879D-01 0.394D+00 0.518D+00
 Gap=     0.217 Goal=   None    Shift=    0.000
 RMSDP=1.61D-03 MaxDP=4.62D-02 DE=-2.40D-01 OVMax= 7.71D-02

 Cycle   4  Pass 0  IDiag  1:
 E= -648.651631912557     Delta-E=       -0.054671635335 Rises=F Damp=F
 DIIS: error= 5.44D-03 at cycle   4 NSaved=   4.
 NSaved= 4 IEnMin= 4 EnMin= -648.651631912557     IErMin= 4 ErrMin= 5.44D-03
 ErrMax= 5.44D-03  0.00D+00 EMaxC= 1.00D-01 BMatC= 1.31D-02 BMatP= 7.34D-02
 IDIUse=3 WtCom= 9.46D-01 WtEn= 5.44D-02
 Coeff-Com:  0.259D-01 0.808D-01 0.303D+00 0.591D+00
 Coeff-En:   0.000D+00 0.000D+00 0.164D+00 0.836D+00
 Coeff:      0.244D-01 0.764D-01 0.295D+00 0.604D+00
 Gap=     0.213 Goal=   None    Shift=    0.000
 RMSDP=5.15D-04 MaxDP=1.63D-02 DE=-5.47D-02 OVMax= 2.50D-02

 Cycle   5  Pass 0  IDiag  1:
 E= -648.661484247061     Delta-E=       -0.009852334504 Rises=F Damp=F
 DIIS: error= 1.09D-03 at cycle   5 NSaved=   5.
 NSaved= 5 IEnMin= 5 EnMin= -648.661484247061     IErMin= 5 ErrMin= 1.09D-03
 ErrMax= 1.09D-03  0.00D+00 EMaxC= 1.00D-01 BMatC= 6.47D-04 BMatP= 1.31D-02
 IDIUse=3 WtCom= 9.89D-01 WtEn= 1.09D-02
 Coeff-Com:  0.548D-02 0.145D-02 0.117D+00 0.328D+00 0.548D+00
 Coeff-En:   0.000D+00 0.000D+00 0.000D+00 0.000D+00 0.100D+01
 Coeff:      0.542D-02 0.144D-02 0.116D+00 0.325D+00 0.553D+00
 Gap=     0.209 Goal=   None    Shift=    0.000
 RMSDP=1.32D-04 MaxDP=4.11D-03 DE=-9.85D-03 OVMax= 4.72D-03

 Cycle   6  Pass 0  IDiag  1:
 E= -648.661964689975     Delta-E=       -0.000480442914 Rises=F Damp=F
 DIIS: error= 2.69D-04 at cycle   6 NSaved=   6.
 NSaved= 6 IEnMin= 6 EnMin= -648.661964689975     IErMin= 6 ErrMin= 2.69D-04
 ErrMax= 2.69D-04  0.00D+00 EMaxC= 1.00D-01 BMatC= 5.68D-05 BMatP= 6.47D-04
 IDIUse=3 WtCom= 9.97D-01 WtEn= 2.69D-03
 Coeff-Com:  0.132D-02-0.428D-02 0.419D-01 0.130D+00 0.308D+00 0.524D+00
 Coeff-En:   0.000D+00 0.000D+00 0.000D+00 0.000D+00 0.147D-02 0.999D+00
 Coeff:      0.131D-02-0.427D-02 0.418D-01 0.129D+00 0.307D+00 0.525D+00
 Gap=     0.209 Goal=   None    Shift=    0.000
 RMSDP=3.91D-05 MaxDP=1.45D-03 DE=-4.80D-04 OVMax= 1.75D-03

 Cycle   7  Pass 0  IDiag  1:
 E= -648.662008611865     Delta-E=       -0.000043921890 Rises=F Damp=F
 DIIS: error= 9.86D-05 at cycle   7 NSaved=   7.
 NSaved= 7 IEnMin= 7 EnMin= -648.662008611865     IErMin= 7 ErrMin= 9.86D-05
 ErrMax= 9.86D-05  0.00D+00 EMaxC= 1.00D-01 BMatC= 4.87D-06 BMatP= 5.68D-05
 IDIUse=1 WtCom= 1.00D+00 WtEn= 0.00D+00
 Coeff-Com:  0.336D-03-0.257D-02 0.128D-01 0.407D-01 0.124D+00 0.291D+00
 Coeff-Com:  0.534D+00
 Coeff:      0.336D-03-0.257D-02 0.128D-01 0.407D-01 0.124D+00 0.291D+00
 Coeff:      0.534D+00
 Gap=     0.209 Goal=   None    Shift=    0.000
 RMSDP=1.14D-05 MaxDP=3.55D-04 DE=-4.39D-05 OVMax= 6.56D-04

 Cycle   8  Pass 0  IDiag  1:
 E= -648.662012611176     Delta-E=       -0.000003999312 Rises=F Damp=F
 DIIS: error= 4.69D-05 at cycle   8 NSaved=   8.
 NSaved= 8 IEnMin= 8 EnMin= -648.662012611176     IErMin= 8 ErrMin= 4.69D-05
 ErrMax= 4.69D-05  0.00D+00 EMaxC= 1.00D-01 BMatC= 5.73D-07 BMatP= 4.87D-06
 IDIUse=1 WtCom= 1.00D+00 WtEn= 0.00D+00
 Coeff-Com:  0.107D-03-0.112D-02 0.337D-02 0.105D-01 0.433D-01 0.117D+00
 Coeff-Com:  0.307D+00 0.520D+00
 Coeff:      0.107D-03-0.112D-02 0.337D-02 0.105D-01 0.433D-01 0.117D+00
 Coeff:      0.307D+00 0.520D+00
 Gap=     0.209 Goal=   None    Shift=    0.000
 RMSDP=3.90D-06 MaxDP=1.43D-04 DE=-4.00D-06 OVMax= 2.14D-04

 Initial convergence to 1.0D-05 achieved.  Increase integral accuracy.
 Cycle   9  Pass 1  IDiag  1:
 E= -648.662020123014     Delta-E=       -0.000007511838 Rises=F Damp=F
 DIIS: error= 1.70D-05 at cycle   1 NSaved=   1.
 NSaved= 1 IEnMin= 1 EnMin= -648.662020123014     IErMin= 1 ErrMin= 1.70D-05
 ErrMax= 1.70D-05  0.00D+00 EMaxC= 1.00D-01 BMatC= 6.05D-08 BMatP= 6.05D-08
 IDIUse=1 WtCom= 1.00D+00 WtEn= 0.00D+00
 Coeff-Com:  0.100D+01
 Coeff:      0.100D+01
 Gap=     0.209 Goal=   None    Shift=    0.000
 RMSDP=3.90D-06 MaxDP=1.43D-04 DE=-7.51D-06 OVMax= 2.23D-04

 Cycle  10  Pass 1  IDiag  1:
 E= -648.662020003453     Delta-E=        0.000000119561 Rises=F Damp=F
 DIIS: error= 3.53D-05 at cycle   2 NSaved=   2.
 NSaved= 2 IEnMin= 1 EnMin= -648.662020123014     IErMin= 1 ErrMin= 1.70D-05
 ErrMax= 3.53D-05  0.00D+00 EMaxC= 1.00D-01 BMatC= 2.23D-07 BMatP= 6.05D-08
 IDIUse=1 WtCom= 1.00D+00 WtEn= 0.00D+00
 Coeff-Com:  0.663D+00 0.337D+00
 Coeff:      0.663D+00 0.337D+00
 Gap=     0.209 Goal=   None    Shift=    0.000
 RMSDP=2.03D-06 MaxDP=8.49D-05 DE= 1.20D-07 OVMax= 1.70D-04

 Cycle  11  Pass 1  IDiag  1:
 E= -648.662020173310     Delta-E=       -0.000000169857 Rises=F Damp=F
 DIIS: error= 3.61D-06 at cycle   3 NSaved=   3.
 NSaved= 3 IEnMin= 3 EnMin= -648.662020173310     IErMin= 3 ErrMin= 3.61D-06
 ErrMax= 3.61D-06  0.00D+00 EMaxC= 1.00D-01 BMatC= 2.92D-09 BMatP= 6.05D-08
 IDIUse=1 WtCom= 1.00D+00 WtEn= 0.00D+00
 Coeff-Com:  0.254D+00 0.159D+00 0.586D+00
 Coeff:      0.254D+00 0.159D+00 0.586D+00
 Gap=     0.209 Goal=   None    Shift=    0.000
 RMSDP=3.54D-07 MaxDP=1.11D-05 DE=-1.70D-07 OVMax= 1.50D-05

 Cycle  12  Pass 1  IDiag  1:
 E= -648.662020175257     Delta-E=       -0.000000001947 Rises=F Damp=F
 DIIS: error= 1.02D-06 at cycle   4 NSaved=   4.
 NSaved= 4 IEnMin= 4 EnMin= -648.662020175257     IErMin= 4 ErrMin= 1.02D-06
 ErrMax= 1.02D-06  0.00D+00 EMaxC= 1.00D-01 BMatC= 5.61D-10 BMatP= 2.92D-09
 IDIUse=1 WtCom= 1.00D+00 WtEn= 0.00D+00
 Coeff-Com:  0.289D-01 0.321D-01 0.327D+00 0.612D+00
 Coeff:      0.289D-01 0.321D-01 0.327D+00 0.612D+00
 Gap=     0.209 Goal=   None    Shift=    0.000
 RMSDP=1.29D-07 MaxDP=3.76D-06 DE=-1.95D-09 OVMax= 5.56D-06

 Cycle  13  Pass 1  IDiag  1:
 E= -648.662020175666     Delta-E=       -0.000000000409 Rises=F Damp=F
 DIIS: error= 5.57D-07 at cycle   5 NSaved=   5.
 NSaved= 5 IEnMin= 5 EnMin= -648.662020175666     IErMin= 5 ErrMin= 5.57D-07
 ErrMax= 5.57D-07  0.00D+00 EMaxC= 1.00D-01 BMatC= 7.28D-11 BMatP= 5.61D-10
 IDIUse=1 WtCom= 1.00D+00 WtEn= 0.00D+00
 Coeff-Com: -0.628D-02 0.449D-02 0.133D+00 0.355D+00 0.514D+00
 Coeff:     -0.628D-02 0.449D-02 0.133D+00 0.355D+00 0.514D+00
 Gap=     0.209 Goal=   None    Shift=    0.000
 RMSDP=4.54D-08 MaxDP=1.46D-06 DE=-4.09D-10 OVMax= 2.35D-06

 Cycle  14  Pass 1  IDiag  1:
 E= -648.662020175721     Delta-E=       -0.000000000055 Rises=F Damp=F
 DIIS: error= 2.12D-07 at cycle   6 NSaved=   6.
 NSaved= 6 IEnMin= 6 EnMin= -648.662020175721     IErMin= 6 ErrMin= 2.12D-07
 ErrMax= 2.12D-07  0.00D+00 EMaxC= 1.00D-01 BMatC= 1.09D-11 BMatP= 7.28D-11
 IDIUse=1 WtCom= 1.00D+00 WtEn= 0.00D+00
 Coeff-Com: -0.605D-02 0.492D-03 0.562D-01 0.172D+00 0.331D+00 0.446D+00
 Coeff:     -0.605D-02 0.492D-03 0.562D-01 0.172D+00 0.331D+00 0.446D+00
 Gap=     0.209 Goal=   None    Shift=    0.000
 RMSDP=1.59D-08 MaxDP=6.77D-07 DE=-5.55D-11 OVMax= 9.72D-07

 Cycle  15  Pass 1  IDiag  1:
 E= -648.662020175721     Delta-E=        0.000000000000 Rises=F Damp=F
 DIIS: error= 4.86D-08 at cycle   7 NSaved=   7.
 NSaved= 7 IEnMin= 6 EnMin= -648.662020175721     IErMin= 7 ErrMin= 4.86D-08
 ErrMax= 4.86D-08  0.00D+00 EMaxC= 1.00D-01 BMatC= 9.62D-13 BMatP= 1.09D-11
 IDIUse=1 WtCom= 1.00D+00 WtEn= 0.00D+00
 Coeff-Com: -0.326D-02-0.295D-03 0.184D-01 0.653D-01 0.145D+00 0.278D+00
 Coeff-Com:  0.497D+00
 Coeff:     -0.326D-02-0.295D-03 0.184D-01 0.653D-01 0.145D+00 0.278D+00
 Coeff:      0.497D+00
 Gap=     0.209 Goal=   None    Shift=    0.000
 RMSDP=4.57D-09 MaxDP=1.51D-07 DE= 4.55D-13 OVMax= 1.96D-07

 SCF Done:  E(RB3LYP) =  -648.662020176     A.U. after   15 cycles
            NFock= 15  Conv=0.46D-08     -V/T= 2.0079
 KE= 6.435895469985D+02 PE=-3.083921603865D+03 EE= 1.006910367132D+03
 Leave Link  502 at Mon Aug  7 13:06:30 2023, MaxMem=   458752000 cpu:       132.4
 (Enter /opt/apps/apps/binapps/gaussian/g09d01_em64t/g09/l601.exe)
 Copying SCF densities to generalized density rwf, IOpCl= 0 IROHF=0.

 **********************************************************************

            Population analysis using the SCF density.

 **********************************************************************

 Orbital symmetries:
       Occupied  (A) (A) (A) (A) (A) (A) (A) (A) (A) (A) (A) (A)
                 (A) (A) (A) (A) (A) (A) (A) (A) (A) (A) (A) (A)
                 (A) (A) (A) (A) (A) (A) (A) (A) (A) (A) (A) (A)
                 (A) (A) (A) (A) (A) (A) (A) (A) (A) (A) (A)
       Virtual   (A) (A) (A) (A) (A) (A) (A) (A) (A) (A) (A) (A)
                 (A) (A) (A) (A) (A) (A) (A) (A) (A) (A) (A) (A)
                 (A) (A) (A) (A) (A) (A) (A) (A) (A) (A) (A) (A)
                 (A) (A) (A) (A) (A) (A) (A) (A) (A) (A) (A) (A)
                 (A) (A) (A) (A) (A) (A) (A) (A) (A) (A) (A) (A)
                 (A) (A) (A) (A) (A) (A) (A) (A) (A) (A) (A) (A)
                 (A) (A) (A) (A) (A) (A) (A) (A) (A) (A) (A) (A)
                 (A) (A) (A) (A) (A) (A) (A) (A) (A) (A) (A) (A)
                 (A) (A) (A) (A) (A) (A) (A) (A) (A) (A) (A) (A)
                 (A) (A) (A) (A) (A) (A) (A) (A) (A) (A) (A) (A)
                 (A) (A) (A) (A) (A) (A) (A) (A) (A) (A) (A) (A)
                 (A) (A) (A) (A) (A) (A) (A) (A) (A) (A) (A) (A)
                 (A) (A) (A) (A) (A) (A) (A) (A) (A) (A) (A) (A)
                 (A) (A) (A) (A) (A) (A) (A) (A)
 The electronic state is 1-A.
 Alpha  occ. eigenvalues --  -19.24495 -19.19105 -19.17053 -19.12681 -10.35165
 Alpha  occ. eigenvalues --  -10.31682 -10.28109 -10.22047 -10.21794 -10.21392
 Alpha  occ. eigenvalues --  -10.21043 -10.20577 -10.20340  -1.17242  -1.11741
 Alpha  occ. eigenvalues --   -1.06286  -1.02389  -0.88963  -0.81833  -0.78469
 Alpha  occ. eigenvalues --   -0.75609  -0.69207  -0.66085  -0.60271  -0.59257
 Alpha  occ. eigenvalues --   -0.55774  -0.52777  -0.52473  -0.51280  -0.49428
 Alpha  occ. eigenvalues --   -0.47557  -0.45779  -0.45071  -0.44407  -0.43916
 Alpha  occ. eigenvalues --   -0.42492  -0.41212  -0.40924  -0.38940  -0.38340
 Alpha  occ. eigenvalues --   -0.36335  -0.35692  -0.31453  -0.30041  -0.28245
 Alpha  occ. eigenvalues --   -0.26357  -0.26016
 Alpha virt. eigenvalues --   -0.05093  -0.03714   0.00151   0.04833   0.07959
 Alpha virt. eigenvalues --    0.08482   0.12636   0.13222   0.13851   0.14596
 Alpha virt. eigenvalues --    0.16345   0.17162   0.17553   0.18845   0.22234
 Alpha virt. eigenvalues --    0.24510   0.25621   0.27900   0.28945   0.31850
 Alpha virt. eigenvalues --    0.32303   0.34489   0.38638   0.40436   0.46938
 Alpha virt. eigenvalues --    0.47412   0.50015   0.51314   0.51945   0.52854
 Alpha virt. eigenvalues --    0.53682   0.53960   0.55032   0.56323   0.57090
 Alpha virt. eigenvalues --    0.58790   0.59830   0.60263   0.60878   0.61628
 Alpha virt. eigenvalues --    0.64049   0.65139   0.66753   0.67633   0.68825
 Alpha virt. eigenvalues --    0.72106   0.73510   0.74377   0.78184   0.78969
 Alpha virt. eigenvalues --    0.80731   0.83147   0.84266   0.84793   0.86036
 Alpha virt. eigenvalues --    0.87523   0.89156   0.90540   0.91811   0.93887
 Alpha virt. eigenvalues --    0.95152   0.95618   0.96341   0.97811   1.01032
 Alpha virt. eigenvalues --    1.02027   1.04317   1.05872   1.07201   1.09720
 Alpha virt. eigenvalues --    1.10371   1.12218   1.13124   1.18418   1.19828
 Alpha virt. eigenvalues --    1.22213   1.26419   1.29008   1.29741   1.34259
 Alpha virt. eigenvalues --    1.36481   1.38396   1.38839   1.41347   1.43682
 Alpha virt. eigenvalues --    1.45136   1.45733   1.49015   1.52711   1.53485
 Alpha virt. eigenvalues --    1.55817   1.62643   1.66687   1.67734   1.67936
 Alpha virt. eigenvalues --    1.72118   1.73470   1.76760   1.78295   1.80527
 Alpha virt. eigenvalues --    1.81420   1.83385   1.85047   1.86165   1.87452
 Alpha virt. eigenvalues --    1.89657   1.91075   1.91287   1.93783   1.95692
 Alpha virt. eigenvalues --    1.97103   1.99516   2.04032   2.06448   2.08572
 Alpha virt. eigenvalues --    2.12229   2.14792   2.16621   2.18665   2.20678
 Alpha virt. eigenvalues --    2.21824   2.24375   2.27630   2.30342   2.31390
 Alpha virt. eigenvalues --    2.35216   2.37407   2.39341   2.44346   2.49820
 Alpha virt. eigenvalues --    2.52896   2.53315   2.56848   2.62082   2.62935
 Alpha virt. eigenvalues --    2.64026   2.67657   2.69220   2.70883   2.75604
 Alpha virt. eigenvalues --    2.79718   2.85432   2.86142   2.91352   2.93538
 Alpha virt. eigenvalues --    2.98083   3.04909   3.10075   3.13920   3.37548
 Alpha virt. eigenvalues --    3.43396   3.92497   3.99995   4.05898   4.08880
 Alpha virt. eigenvalues --    4.10164   4.14104   4.22860   4.31131   4.35569
 Alpha virt. eigenvalues --    4.41202   4.45923   4.60792   4.75458
          Condensed to atoms (all electrons):
               1          2          3          4          5          6
     1  C    4.980156  -0.054464   0.482657  -0.008191   0.000006   0.498646
     2  C   -0.054464   5.025835  -0.031085   0.500690   0.000894  -0.069362
     3  C    0.482657  -0.031085   4.889842   0.539514   0.000001  -0.033881
     4  C   -0.008191   0.500690   0.539514   4.868132  -0.000001  -0.039248
     5  C    0.000006   0.000894   0.000001  -0.000001   5.235988  -0.000879
     6  C    0.498646  -0.069362  -0.033881  -0.039248  -0.000879   5.260678
     7  C   -0.015084   0.503920  -0.044979   0.000500   0.004228   0.478102
     8  O    0.005314  -0.000063   0.000816  -0.000012  -0.000001  -0.102878
     9  O    0.000010   0.000045  -0.000007   0.000483  -0.074960  -0.000006
    10  O    0.004736  -0.000202  -0.000071   0.000012   0.000538  -0.091024
    11  C   -0.035049   0.005816   0.006447  -0.000563   0.000007   0.233326
    12  C    0.000081  -0.001635   0.000000   0.000586   0.377625   0.003322
    13  O    0.003382  -0.057808   0.000517   0.003484  -0.117391  -0.075319
    14  H   -0.000021   0.000168  -0.000123   0.000036  -0.000540   0.008922
    15  H    0.355216   0.000551  -0.039157   0.004939   0.000000  -0.044143
    16  H    0.000232   0.351023   0.003301  -0.030906   0.000066   0.003383
    17  H   -0.041255   0.005063   0.370671  -0.043589   0.000000   0.004003
    18  H    0.006037  -0.043024  -0.046257   0.356781   0.000000   0.001380
    19  H   -0.000001   0.000004   0.000000   0.000001   0.369299   0.000016
    20  H    0.000000  -0.000062   0.000000  -0.000001   0.356529   0.000046
    21  H    0.000000   0.000007   0.000000   0.000000   0.357071   0.000004
               7          8          9         10         11         12
     1  C   -0.015084   0.005314   0.000010   0.004736  -0.035049   0.000081
     2  C    0.503920  -0.000063   0.000045  -0.000202   0.005816  -0.001635
     3  C   -0.044979   0.000816  -0.000007  -0.000071   0.006447   0.000000
     4  C    0.000500  -0.000012   0.000483   0.000012  -0.000563   0.000586
     5  C    0.004228  -0.000001  -0.074960   0.000538   0.000007   0.377625
     6  C    0.478102  -0.102878  -0.000006  -0.091024   0.233326   0.003322
     7  C    4.664211   0.001573  -0.005558  -0.001114  -0.042665  -0.019395
     8  O    0.001573   7.985052   0.000000  -0.083043   0.624992   0.000002
     9  O   -0.005558   0.000000   7.992628  -0.000005  -0.000007   0.568429
    10  O   -0.001114  -0.083043  -0.000005   8.250520   0.273636  -0.000560
    11  C   -0.042665   0.624992  -0.000007   0.273636   4.434112  -0.000364
    12  C   -0.019395   0.000002   0.568429  -0.000560  -0.000364   4.373153
    13  O    0.205979  -0.000109  -0.063868  -0.017814   0.002114   0.218930
    14  H   -0.003529   0.005432   0.000162   0.219001  -0.040042  -0.000017
    15  H    0.004914   0.009999   0.000000   0.000307  -0.005967   0.000002
    16  H   -0.030671   0.000000   0.007004   0.000003  -0.000054   0.003395
    17  H    0.000314   0.000000   0.000000   0.000000  -0.000082   0.000000
    18  H    0.004885   0.000000  -0.000006   0.000000   0.000012  -0.000018
    19  H   -0.000211  -0.000001  -0.000227   0.000223   0.000103  -0.025146
    20  H   -0.000018   0.000000   0.002701   0.000087  -0.000023  -0.022148
    21  H   -0.000082   0.000000   0.003948   0.000004   0.000003  -0.033828
              13         14         15         16         17         18
     1  C    0.003382  -0.000021   0.355216   0.000232  -0.041255   0.006037
     2  C   -0.057808   0.000168   0.000551   0.351023   0.005063  -0.043024
     3  C    0.000517  -0.000123  -0.039157   0.003301   0.370671  -0.046257
     4  C    0.003484   0.000036   0.004939  -0.030906  -0.043589   0.356781
     5  C   -0.117391  -0.000540   0.000000   0.000066   0.000000   0.000000
     6  C   -0.075319   0.008922  -0.044143   0.003383   0.004003   0.001380
     7  C    0.205979  -0.003529   0.004914  -0.030671   0.000314   0.004885
     8  O   -0.000109   0.005432   0.009999   0.000000   0.000000   0.000000
     9  O   -0.063868   0.000162   0.000000   0.007004   0.000000  -0.000006
    10  O   -0.017814   0.219001   0.000307   0.000003   0.000000   0.000000
    11  C    0.002114  -0.040042  -0.005967  -0.000054  -0.000082   0.000012
    12  C    0.218930  -0.000017   0.000002   0.003395   0.000000  -0.000018
    13  O    8.359459   0.033523  -0.000068  -0.005411   0.000003  -0.000113
    14  H    0.033523   0.347768  -0.000074  -0.000047   0.000000   0.000001
    15  H   -0.000068  -0.000074   0.550247   0.000011  -0.004626  -0.000226
    16  H   -0.005411  -0.000047   0.000011   0.521420  -0.000105  -0.005702
    17  H    0.000003   0.000000  -0.004626  -0.000105   0.568236  -0.007270
    18  H   -0.000113   0.000001  -0.000226  -0.005702  -0.007270   0.595692
    19  H    0.001751  -0.000068   0.000000   0.000004   0.000000   0.000000
    20  H    0.003305   0.000657   0.000000  -0.000029   0.000000   0.000000
    21  H    0.004989   0.000007   0.000000   0.000012   0.000000   0.000000
              19         20         21
     1  C   -0.000001   0.000000   0.000000
     2  C    0.000004  -0.000062   0.000007
     3  C    0.000000   0.000000   0.000000
     4  C    0.000001  -0.000001   0.000000
     5  C    0.369299   0.356529   0.357071
     6  C    0.000016   0.000046   0.000004
     7  C   -0.000211  -0.000018  -0.000082
     8  O   -0.000001   0.000000   0.000000
     9  O   -0.000227   0.002701   0.003948
    10  O    0.000223   0.000087   0.000004
    11  C    0.000103  -0.000023   0.000003
    12  C   -0.025146  -0.022148  -0.033828
    13  O    0.001751   0.003305   0.004989
    14  H   -0.000068   0.000657   0.000007
    15  H    0.000000   0.000000   0.000000
    16  H    0.000004  -0.000029   0.000012
    17  H    0.000000   0.000000   0.000000
    18  H    0.000000   0.000000   0.000000
    19  H    0.476021  -0.017568  -0.011848
    20  H   -0.017568   0.512389  -0.027160
    21  H   -0.011848  -0.027160   0.522969
 Mulliken charges:
               1
     1  C   -0.182406
     2  C   -0.136312
     3  C   -0.098207
     4  C   -0.152647
     5  C   -0.508480
     6  C   -0.035088
     7  C    0.294681
     8  O   -0.447071
     9  O   -0.430767
    10  O   -0.555235
    11  C    0.544248
    12  C    0.557587
    13  O   -0.499538
    14  H    0.428782
    15  H    0.168074
    16  H    0.183069
    17  H    0.148637
    18  H    0.137828
    19  H    0.207646
    20  H    0.191294
    21  H    0.183905
 Sum of Mulliken charges =   0.00000
 Mulliken charges with hydrogens summed into heavy atoms:
               1
     1  C   -0.014331
     2  C    0.046757
     3  C    0.050430
     4  C   -0.014819
     5  C    0.074365
     6  C   -0.035088
     7  C    0.294681
     8  O   -0.447071
     9  O   -0.430767
    10  O   -0.126453
    11  C    0.544248
    12  C    0.557587
    13  O   -0.499538
 Electronic spatial extent (au):  <R**2>=           2322.3086
 Charge=              0.0000 electrons
 Dipole moment (field-independent basis, Debye):
    X=             -1.6673    Y=             -2.8773    Z=             -1.9586  Tot=              3.8593
 Quadrupole moment (field-independent basis, Debye-Ang):
   XX=            -68.4072   YY=            -82.5407   ZZ=            -74.0453
   XY=            -13.6488   XZ=              1.1491   YZ=              0.8744
 Traceless Quadrupole moment (field-independent basis, Debye-Ang):
   XX=              6.5905   YY=             -7.5430   ZZ=              0.9524
   XY=            -13.6488   XZ=              1.1491   YZ=              0.8744
 Octapole moment (field-independent basis, Debye-Ang**2):
  XXX=             -8.8223  YYY=            -35.1020  ZZZ=              0.1635  XYY=             -7.0217
  XXY=              1.3022  XXZ=             -9.6879  XZZ=            -10.8200  YZZ=              7.5747
  YYZ=             -7.8857  XYZ=            -10.9640
 Hexadecapole moment (field-independent basis, Debye-Ang**3):
 XXXX=          -1566.0163 YYYY=          -1201.8271 ZZZZ=           -125.5727 XXXY=            -64.5492
 XXXZ=             21.1857 YYYX=            -50.0293 YYYZ=              6.7297 ZZZX=              0.4456
 ZZZY=             -5.7644 XXYY=           -499.6926 XXZZ=           -306.9461 YYZZ=           -223.4975
 XXYZ=             -4.0683 YYXZ=             -6.8818 ZZXY=              3.9274
 N-N= 7.847596695588D+02 E-N=-3.083921603792D+03  KE= 6.435895469985D+02
 No NMR shielding tensors so no spin-rotation constants.
 Leave Link  601 at Mon Aug  7 13:06:31 2023, MaxMem=   458752000 cpu:         0.2
 (Enter /opt/apps/apps/binapps/gaussian/g09d01_em64t/g09/l602.exe)
 FitSet:  NAtFit=    21 NAtPot=    21 NAtFrz=     0 MDM=    25 TotChg=   0.00000
 Merz-Kollman atomic radii used.

 **********************************************************************

            Electrostatic Properties Using The SCF Density

 **********************************************************************

       Atomic Center    1 is at   2.360465 -0.353189  0.152907
       Atomic Center    2 is at   0.048693 -1.877535 -0.305693
       Atomic Center    3 is at   2.451681 -1.741281  0.093002
       Atomic Center    4 is at   1.306520 -2.416608 -0.194556
       Atomic Center    5 is at  -3.295003  0.842792  0.040081
       Atomic Center    6 is at   1.141275  0.329235 -0.067569
       Atomic Center    7 is at   0.020158 -0.499620 -0.195621
       Atomic Center    8 is at   1.902282  2.427306  0.662964
       Atomic Center    9 is at  -2.573291 -1.426312  0.577859
       Atomic Center   10 is at   0.156683  2.417505 -0.672505
       Atomic Center   11 is at   1.090069  1.803359  0.048480
       Atomic Center   12 is at  -2.329019 -0.329612  0.126552
       Atomic Center   13 is at  -1.121918  0.169637 -0.182651
       Atomic Center   14 is at  -0.316970  1.617579 -0.906832
       Atomic Center   15 is at   3.276185  0.265218  0.324208
       Atomic Center   16 is at  -0.885702 -2.464832 -0.592622
       Atomic Center   17 is at   3.391177 -2.242543  0.173457
       Atomic Center   18 is at   1.379379 -3.453026 -0.344613
       Atomic Center   19 is at  -3.008523  1.474534  0.866037
       Atomic Center   20 is at  -3.244123  1.230015 -0.912082
       Atomic Center   21 is at  -4.270508  0.322711  0.121620
    1042 points will be used for fitting atomic charges
 Fitting point charges to electrostatic potential
 Charges from ESP fit, RMS=   0.00122 RRMS=   0.06791:
 ESP charges:
               1
     1  C   -0.051367
     2  C   -0.243816
     3  C   -0.160531
     4  C   -0.047488
     5  C   -0.549462
     6  C   -0.291618
     7  C    0.342615
     8  O   -0.494089
     9  O   -0.466785
    10  O   -0.513466
    11  C    0.729693
    12  C    0.734679
    13  O   -0.351670
    14  H    0.331394
    15  H    0.125374
    16  H    0.155783
    17  H    0.139585
    18  H    0.114564
    19  H    0.190086
    20  H    0.175075
    21  H    0.131444
 Sum of ESP charges =   0.00000
 ESP charges with hydrogens summed into heavy atoms:
               1
     1  C    0.074006
     2  C   -0.088032
     3  C   -0.020945
     4  C    0.067075
     5  C   -0.052858
     6  C   -0.291618
     7  C    0.342615
     8  O   -0.494089
     9  O   -0.466785
    10  O   -0.182072
    11  C    0.729693
    12  C    0.734679
    13  O   -0.351670
 Charge=   0.00000 Dipole=    -1.6644    -2.9110    -1.9900 Tot=     3.8992
 -----------------------------------------------------------------

              Electrostatic Properties (Atomic Units)

 -----------------------------------------------------------------
    Center     Electric         -------- Electric Field --------
               Potential          X             Y             Z
 -----------------------------------------------------------------
    1 Atom    -14.710479
    2 Atom    -14.713979
    3 Atom    -14.725789
    4 Atom    -14.726035
    5 Atom    -14.715855
    6 Atom    -14.707961
    7 Atom    -14.648247
    8 Atom    -22.340409
    9 Atom    -22.297642
   10 Atom    -22.273505
   11 Atom    -14.611252
   12 Atom    -14.576173
   13 Atom    -22.216469
   14 Atom     -0.950640
   15 Atom     -1.092442
   16 Atom     -1.067909
   17 Atom     -1.087973
   18 Atom     -1.100351
   19 Atom     -1.066066
   20 Atom     -1.077695
   21 Atom     -1.084808
 -----------------------------------------------------------------
 Leave Link  602 at Mon Aug  7 13:06:31 2023, MaxMem=   458752000 cpu:         0.2
 (Enter /opt/apps/apps/binapps/gaussian/g09d01_em64t/g09/l701.exe)
 Compute integral first derivatives.
 ... and contract with generalized density number  0.
 R6Disp: Adding Grimme-D3 dispersion energy 1st derivatives to the gradient.
 Leave Link  701 at Mon Aug  7 13:06:31 2023, MaxMem=   458752000 cpu:         0.2
 (Enter /opt/apps/apps/binapps/gaussian/g09d01_em64t/g09/l702.exe)
 L702 exits ... SP integral derivatives will be done elsewhere.
 Leave Link  702 at Mon Aug  7 13:06:31 2023, MaxMem=   458752000 cpu:         0.1
 (Enter /opt/apps/apps/binapps/gaussian/g09d01_em64t/g09/l703.exe)
 Compute integral first derivatives, UseDBF=F ICtDFT=           0.
 Integral derivatives from FoFJK, PRISM(SPDF).
 Calling FoFJK, ICntrl=      2127 FMM=F ISym2X=0 I1Cent= 0 IOpClX= 0 NMat=1 NMatS=1 NMatT=0.
 FoFJK:  IHMeth= 1 ICntrl=    2127 DoSepK=F KAlg= 0 I1Cent=   0 FoldK=F
 IRaf=         0 NMat=   1 IRICut=       1 DoRegI=T DoRafI=F ISym2E= 0.
 FoFCou: FMM=F IPFlag=           0 FMFlag=      100000 FMFlg1=         800
         NFxFlg=           0 DoJE=F BraDBF=F KetDBF=F FulRan=T
         wScrn=  0.000000 ICntrl=    2127 IOpCl=  0 I1Cent=           0 NGrid=           0
         NMat0=    1 NMatS0=      1 NMatT0=    0 NMatD0=    1 NMtDS0=    0 NMtDT0=    0
 Symmetry not used in FoFCou.
 Leave Link  703 at Mon Aug  7 13:07:11 2023, MaxMem=   458752000 cpu:        39.8
 (Enter /opt/apps/apps/binapps/gaussian/g09d01_em64t/g09/l716.exe)
 Dipole        =-6.55948300D-01-1.13200492D+00-7.70567974D-01
 ***** Axes restored to original set *****
 -------------------------------------------------------------------
 Center     Atomic                   Forces (Hartrees/Bohr)
 Number     Number              X              Y              Z
 -------------------------------------------------------------------
      1        6           0.028239622   -0.017762140    0.008216416
      2        6          -0.020169275    0.003875615    0.015166588
      3        6           0.012152457   -0.031435578    0.012037396
      4        6          -0.020630512    0.028080462   -0.005588121
      5        6          -0.031721820    0.050157754   -0.047120667
      6        6           0.011358746    0.035226791   -0.028406950
      7        6           0.017766682    0.016196435   -0.009006618
      8        8           0.026039488   -0.011945741   -0.014470571
      9        8           0.007439711   -0.001009972    0.012573576
     10        8          -0.009563398    0.001710630    0.001873401
     11        6           0.022045451   -0.001651895   -0.000653919
     12        6          -0.026192967   -0.018632963   -0.020111141
     13        8          -0.021601896   -0.023821191    0.024912133
     14        1          -0.030698259   -0.008537795    0.025144532
     15        1          -0.019297399    0.005126361   -0.000509259
     16        1           0.035854794   -0.010814678   -0.009771672
     17        1           0.008713254    0.006384261   -0.004777225
     18        1          -0.005303161    0.029664714   -0.007259605
     19        1          -0.003618297   -0.015965516    0.002975417
     20        1           0.012262685   -0.016252407    0.048347293
     21        1           0.006924093   -0.018593145   -0.003571005
 -------------------------------------------------------------------
 Cartesian Forces:  Max     0.050157754 RMS     0.020291912
 Z-matrix is all fixed cartesians, so copy forces.
 Leave Link  716 at Mon Aug  7 13:07:11 2023, MaxMem=   458752000 cpu:         0.1
 (Enter /opt/apps/apps/binapps/gaussian/g09d01_em64t/g09/l103.exe)

 GradGradGradGradGradGradGradGradGradGradGradGradGradGradGradGradGradGrad
 Berny optimization.
 Search for a local minimum.
 Step number   1 out of a maximum of    2
 All quantities printed in internal units (Hartrees-Bohrs-Radians)
 Second derivative matrix not updated -- first step.
 ITU=  0
     Eigenvalues ---    0.00101   0.00142   0.00186   0.00288   0.00418
     Eigenvalues ---    0.00779   0.01038   0.01513   0.01774   0.02697
     Eigenvalues ---    0.03103   0.03370   0.03791   0.04200   0.05087
     Eigenvalues ---    0.05366   0.06734   0.07083   0.07205   0.07686
     Eigenvalues ---    0.08996   0.09173   0.10771   0.12742   0.13528
     Eigenvalues ---    0.14432   0.14730   0.15547   0.16893   0.19676
     Eigenvalues ---    0.22002   0.23562   0.26212   0.31683   0.32721
     Eigenvalues ---    0.34841   0.38888   0.44612   0.47619   0.51171
     Eigenvalues ---    0.64232   0.67684   0.76207   0.94770   0.97145
     Eigenvalues ---    1.06702   1.09024   1.13867   1.20307   1.22471
     Eigenvalues ---    1.41665   1.49506   1.56432   1.68715   1.82872
     Eigenvalues ---    2.35850   2.48118
 Quadratic step=2.112D+00 exceeds max=3.000D-01 adjusted using Lamda=-1.800D-01.
 Angle between NR and scaled steps=  56.28 degrees.
 Angle between quadratic step and forces=  35.45 degrees.
 Linear search not attempted -- first point.
 TrRot=  0.000000  0.000000  0.000000  0.000000  0.000000  0.000000
 MatCor failed.
 Variable       Old X    -DE/DX   Delta X   Delta X   Delta X     New X
                                 (Linear)    (Quad)   (Total)
    X1       27.07651   0.02824   0.00000   0.04210   0.04210  27.11860
    Y1       24.82290  -0.01776   0.00000  -0.01158  -0.01158  24.81132
    Z1       22.51268   0.00822   0.00000   0.00831   0.00831  22.52099
    X2       22.09173  -0.02017   0.00000   0.00173   0.00173  22.09346
    Y2       26.63351   0.00388   0.00000   0.01495   0.01495  26.64846
    Z2       22.59892   0.01517   0.00000   0.01830   0.01830  22.61722
    X3       26.58372   0.01215   0.00000   0.01157   0.01157  26.59529
    Y3       27.31108  -0.03144   0.00000  -0.02021  -0.02021  27.29087
    Z3       21.81313   0.01204   0.00000   0.01950   0.01950  21.83263
    X4       24.14669  -0.02063   0.00000  -0.01782  -0.01782  24.12887
    Y4       28.10412   0.02808   0.00000   0.05744   0.05744  28.16155
    Z4       22.01051  -0.00559   0.00000  -0.01249  -0.01249  21.99802
    X5       17.29275  -0.03172   0.00000  -0.05700  -0.05700  17.23575
    Y5       20.12077   0.05016   0.00000   0.03506   0.03506  20.15583
    Z5       23.75349  -0.04712   0.00000  -0.02416  -0.02416  23.72933
    X6       25.15001   0.01136   0.00000   0.02927   0.02927  25.17927
    Y6       23.18450   0.03523   0.00000   0.02654   0.02654  23.21104
    Z6       23.37813  -0.02841   0.00000  -0.05432  -0.05432  23.32381
    X7       22.69876   0.01777   0.00000   0.00436   0.00436  22.70311
    Y7       24.16402   0.01620   0.00000   0.00378   0.00378  24.16780
    Z7       23.19853  -0.00901   0.00000  -0.00658  -0.00658  23.19195
    X8       27.59478   0.02604   0.00000   0.05748   0.05748  27.65226
    Y8       19.48391  -0.01195   0.00000  -0.02384  -0.02384  19.46006
    Z8       23.22944  -0.01447   0.00000  -0.01716  -0.01716  23.21228
    X9       17.59039   0.00744   0.00000   0.00248   0.00248  17.59287
    Y9       24.09569  -0.00101   0.00000   0.00992   0.00992  24.10561
    Z9       21.43162   0.01257   0.00000   0.01540   0.01540  21.44702
   X10       24.28066  -0.00956   0.00000  -0.01467  -0.01467  24.26599
   Y10       19.43710   0.00171   0.00000   0.02056   0.02056  19.45766
   Z10       25.73246   0.00187   0.00000  -0.00521  -0.00521  25.72725
   X11       25.76146   0.02205   0.00000   0.05960   0.05960  25.82106
   Y11       20.53373  -0.00165   0.00000   0.00471   0.00471  20.53844
   Z11       24.02395  -0.00065   0.00000   0.00016   0.00016  24.02411
   X12       18.51359  -0.02619   0.00000  -0.03343  -0.03343  18.48015
   Y12       22.56649  -0.01863   0.00000  -0.04138  -0.04138  22.52511
   Z12       22.86158  -0.02011   0.00000  -0.03475  -0.03475  22.82683
   X13       20.92777  -0.02160   0.00000  -0.03722  -0.03722  20.89055
   Y13       22.45118  -0.02382   0.00000  -0.02374  -0.02374  22.42744
   Z13       23.63184   0.02491   0.00000   0.04698   0.04698  23.67882
   X14       23.01706  -0.03070   0.00000  -0.11151  -0.11151  22.90556
   Y14       20.73536  -0.00854   0.00000  -0.05199  -0.05199  20.68336
   Z14       25.72093   0.02514   0.00000   0.10469   0.10469  25.82562
   X15       29.05699  -0.01930   0.00000  -0.01496  -0.01496  29.04203
   Y15       24.08629   0.00513   0.00000  -0.00423  -0.00423  24.08207
   Z15       22.50558  -0.00051   0.00000   0.00287   0.00287  22.50845
   X16       20.08149   0.03585   0.00000   0.07120   0.07120  20.15270
   Y16       27.37357  -0.01081   0.00000  -0.02084  -0.02084  27.35273
   Z16       22.83307  -0.00977   0.00000  -0.02747  -0.02747  22.80560
   X17       28.07191   0.00871   0.00000   0.01933   0.01933  28.09124
   Y17       28.58222   0.00638   0.00000  -0.00410  -0.00410  28.57812
   Z17       21.32128  -0.00478   0.00000  -0.00970  -0.00970  21.31158
   X18       23.77807  -0.00530   0.00000  -0.01758  -0.01758  23.76049
   Y18       30.02463   0.02966   0.00000   0.08880   0.08880  30.11343
   Z18       21.67731  -0.00726   0.00000  -0.03388  -0.03388  21.64343
   X19       18.18760  -0.00362   0.00000  -0.04679  -0.04679  18.14081
   Y19       18.68597  -0.01597   0.00000  -0.03271  -0.03271  18.65326
   Z19       22.61547   0.00298   0.00000   0.02199   0.02199  22.63746
   X20       17.48354   0.01226   0.00000   0.01199   0.01199  17.49553
   Y20       20.01905  -0.01625   0.00000  -0.03441  -0.03441  19.98463
   Z20       25.68624   0.04835   0.00000   0.05822   0.05822  25.74446
   X21       15.27182   0.00692   0.00000  -0.03343  -0.03343  15.23839
   Y21       20.51308  -0.01859   0.00000  -0.06192  -0.06192  20.45117
   Z21       23.36638  -0.00357   0.00000  -0.01916  -0.01916  23.34721
         Item               Value     Threshold  Converged?
 Maximum Force            0.050158     0.000450     NO 
 RMS     Force            0.020292     0.000300     NO 
 Maximum Displacement     0.111505     0.001800     NO 
 RMS     Displacement     0.037803     0.001200     NO 
 Predicted change in Energy=-2.778849D-02
 GradGradGradGradGradGradGradGradGradGradGradGradGradGradGradGradGradGrad

 Leave Link  103 at Mon Aug  7 13:07:11 2023, MaxMem=   458752000 cpu:         0.0
 (Enter /opt/apps/apps/binapps/gaussian/g09d01_em64t/g09/l9999.exe)
 1\1\GINC-NODE611\Force\RB3LYP\6-31G(d)\C9H8O4\MBDX6CW3\07-Aug-2023\0\\
 #p b3lyp/6-31g* pop=mk empiricaldispersion=gd3 int(ultrafine) force\\a
 spirin\\0,1\C,14.32826996,13.13571215,11.91319942\C,11.69044256,14.093
 84608,11.95883155\C,14.06750083,14.4524014,11.54301286\C,12.77787805,1
 4.87205744,11.64746046\C,9.15092945,10.64745307,12.569803\C,13.30881,1
 2.26870656,12.3711729\C,12.01166391,12.78705001,12.2761333\O,14.60253,
 10.31044006,12.29249001\O,9.30843234,12.75089025,11.34112477\O,12.8487
 7419,10.28566837,13.61703277\C,13.63237739,10.86598158,12.71292686\C,9
 .7969681,11.94167256,12.097826\O,11.07449889,11.8806529,12.50542998\H,
 12.18010426,10.97267747,13.61093163\H,15.37629604,12.74591684,11.90943
 956\H,10.62666774,14.48547125,12.08273768\H,14.85501289,15.12506008,11
 .28273487\H,12.5828135,15.88834882,11.47113681\H,9.62446153,9.88819122
 ,11.96759105\H,9.25188959,10.59362292,13.59257102\H,8.08149874,10.8550
 5605,12.36495376\\Version=ES64L-G09RevD.01\State=1-A\HF=-648.6620202\R
 MSD=4.566e-09\RMSF=2.029e-02\Dipole=-0.9530579,1.1091397,0.4086172\Qua
 drupole=-0.5655638,0.5668221,-0.0012583,10.5321875,-4.4632303,0.967943
 \PG=C01 [X(C9H8O4)]\\@


 ONE THORN OF EXPERIENCE IS WORTH A WHOLE WILDERNESS OF
 WARNING....  LOWELL - AMONG MY BOOKS
 Job cpu time:       0 days  0 hours  3 minutes  2.8 seconds.
 File lengths (MBytes):  RWF=     20 Int=      0 D2E=      0 Chk=      3 Scr=      1
 Normal termination of Gaussian 09 at Mon Aug  7 13:07:11 2023.
