 Entering Gaussian System, Link 0=/opt/apps/apps/binapps/gaussian/g09d01_em64t/g09/g09
 Initial command:
 /opt/apps/apps/binapps/gaussian/g09d01_em64t/g09/l1.exe "/net/scratch2/mbdx6cw3/salicylic_acid/dihedral_scan_opt/qm_input/gau_temp_1/Gau-15911.inp" -scrdir="/net/scratch2/mbdx6cw3/salicylic_acid/dihedral_scan_opt/qm_input/gau_temp_1/"
 Entering Link 1 = /opt/apps/apps/binapps/gaussian/g09d01_em64t/g09/l1.exe PID=     15912.
  
 Copyright (c) 1988,1990,1992,1993,1995,1998,2003,2009,2013,
            Gaussian, Inc.  All Rights Reserved.
  
 This is part of the Gaussian(R) 09 program.  It is based on
 the Gaussian(R) 03 system (copyright 2003, Gaussian, Inc.),
 the Gaussian(R) 98 system (copyright 1998, Gaussian, Inc.),
 the Gaussian(R) 94 system (copyright 1995, Gaussian, Inc.),
 the Gaussian 92(TM) system (copyright 1992, Gaussian, Inc.),
 the Gaussian 90(TM) system (copyright 1990, Gaussian, Inc.),
 the Gaussian 88(TM) system (copyright 1988, Gaussian, Inc.),
 the Gaussian 86(TM) system (copyright 1986, Carnegie Mellon
 University), and the Gaussian 82(TM) system (copyright 1983,
 Carnegie Mellon University). Gaussian is a federally registered
 trademark of Gaussian, Inc.
  
 This software contains proprietary and confidential information,
 including trade secrets, belonging to Gaussian, Inc.
  
 This software is provided under written license and may be
 used, copied, transmitted, or stored only in accord with that
 written license.
  
 The following legend is applicable only to US Government
 contracts under FAR:
  
                    RESTRICTED RIGHTS LEGEND
  
 Use, reproduction and disclosure by the US Government is
 subject to restrictions as set forth in subparagraphs (a)
 and (c) of the Commercial Computer Software - Restricted
 Rights clause in FAR 52.227-19.
  
 Gaussian, Inc.
 340 Quinnipiac St., Bldg. 40, Wallingford CT 06492
  
  
 ---------------------------------------------------------------
 Warning -- This program may not be used in any manner that
 competes with the business of Gaussian, Inc. or will provide
 assistance to any competitor of Gaussian, Inc.  The licensee
 of this program is prohibited from giving any competitor of
 Gaussian, Inc. access to this program.  By using this program,
 the user acknowledges that Gaussian, Inc. is engaged in the
 business of creating and licensing software in the field of
 computational chemistry and represents and warrants to the
 licensee that it is not a competitor of Gaussian, Inc. and that
 it will not use this program in any manner prohibited above.
 ---------------------------------------------------------------
  

 Cite this work as:
 Gaussian 09, Revision D.01,
 M. J. Frisch, G. W. Trucks, H. B. Schlegel, G. E. Scuseria, 
 M. A. Robb, J. R. Cheeseman, G. Scalmani, V. Barone, B. Mennucci, 
 G. A. Petersson, H. Nakatsuji, M. Caricato, X. Li, H. P. Hratchian, 
 A. F. Izmaylov, J. Bloino, G. Zheng, J. L. Sonnenberg, M. Hada, 
 M. Ehara, K. Toyota, R. Fukuda, J. Hasegawa, M. Ishida, T. Nakajima, 
 Y. Honda, O. Kitao, H. Nakai, T. Vreven, J. A. Montgomery, Jr., 
 J. E. Peralta, F. Ogliaro, M. Bearpark, J. J. Heyd, E. Brothers, 
 K. N. Kudin, V. N. Staroverov, T. Keith, R. Kobayashi, J. Normand, 
 K. Raghavachari, A. Rendell, J. C. Burant, S. S. Iyengar, J. Tomasi, 
 M. Cossi, N. Rega, J. M. Millam, M. Klene, J. E. Knox, J. B. Cross, 
 V. Bakken, C. Adamo, J. Jaramillo, R. Gomperts, R. E. Stratmann, 
 O. Yazyev, A. J. Austin, R. Cammi, C. Pomelli, J. W. Ochterski, 
 R. L. Martin, K. Morokuma, V. G. Zakrzewski, G. A. Voth, 
 P. Salvador, J. J. Dannenberg, S. Dapprich, A. D. Daniels, 
 O. Farkas, J. B. Foresman, J. V. Ortiz, J. Cioslowski, 
 and D. J. Fox, Gaussian, Inc., Wallingford CT, 2013.
 
 ******************************************
 Gaussian 09:  ES64L-G09RevD.01 24-Apr-2013
                 6-Jul-2023 
 ******************************************
 %chk=./gau_temp_1/mol_chk.chk
 %mem=3500MB
 --------------------------------------------------------
 #p b3lyp/6-31g* empiricaldispersion=gd3 opt=modredundant
 --------------------------------------------------------
 1/14=-1,18=120,19=15,26=3,38=1/1,3;
 2/9=110,12=2,17=6,18=5,40=1/2;
 3/5=1,6=6,7=1,11=2,16=1,25=1,30=1,71=1,74=-5,124=31/1,2,3;
 4//1;
 5/5=2,38=5/2;
 6/7=2,8=2,9=2,10=2,28=1/1;
 7//1,2,3,16;
 1/14=-1,18=20,19=15,26=3/3(2);
 2/9=110/2;
 99//99;
 2/9=110/2;
 3/5=1,6=6,7=1,11=2,16=1,25=1,30=1,71=1,74=-5,124=31/1,2,3;
 4/5=5,16=3,69=1/1;
 5/5=2,38=5/2;
 7//1,2,3,16;
 1/14=-1,18=20,19=15,26=3/3(-5);
 2/9=110/2;
 6/7=2,8=2,9=2,10=2,19=2,28=1/1;
 99/9=1/99;
 Leave Link    1 at Thu Jul  6 18:07:50 2023, MaxMem=   458752000 cpu:         0.0
 (Enter /opt/apps/apps/binapps/gaussian/g09d01_em64t/g09/l101.exe)
 --------------
 salicylic_acid
 --------------
 Symbolic Z-matrix:
 Charge =  0 Multiplicity = 1
 C                     1.66681  -0.21312  -0.0001 
 C                     0.20209  -0.24693  -0.00006 
 C                    -0.51031   0.98178  -0.00002 
 O                     0.09344   2.18233  -0.00005 
 C                    -1.91456   0.95913   0.00004 
 C                    -2.59342  -0.25031   0.00005 
 C                    -1.89794  -1.47067   0.00001 
 C                    -0.51278  -1.46141  -0.00005 
 O                     2.34428   0.81658   0.00012 
 O                     2.26052  -1.42577   0.00002 
 H                     1.06859   2.0235   -0.00015 
 H                    -2.43932   1.90884   0.00007 
 H                    -3.68035  -0.24915   0.00009 
 H                    -2.4396   -2.4113    0.00002 
 H                     0.04447  -2.3919   -0.00007 
 H                     3.22085  -1.25587   0.00014 
 
 The following ModRedundant input section has been read:
 D      10       1       2       3 B                                           
 D      10       1       2       3 F                                           
 
 NAtoms=     16 NQM=       16 NQMF=       0 NMMI=      0 NMMIF=      0
                NMic=       0 NMicF=      0.
                    Isotopes and Nuclear Properties:
 (Nuclear quadrupole moments (NQMom) in fm**2, nuclear magnetic moments (NMagM)
  in nuclear magnetons)

  Atom         1           2           3           4           5           6           7           8           9          10
 IAtWgt=          12          12          12          16          12          12          12          12          16          16
 AtmWgt=  12.0000000  12.0000000  12.0000000  15.9949146  12.0000000  12.0000000  12.0000000  12.0000000  15.9949146  15.9949146
 NucSpn=           0           0           0           0           0           0           0           0           0           0
 AtZEff=   0.0000000   0.0000000   0.0000000   0.0000000   0.0000000   0.0000000   0.0000000   0.0000000   0.0000000   0.0000000
 NQMom=    0.0000000   0.0000000   0.0000000   0.0000000   0.0000000   0.0000000   0.0000000   0.0000000   0.0000000   0.0000000
 NMagM=    0.0000000   0.0000000   0.0000000   0.0000000   0.0000000   0.0000000   0.0000000   0.0000000   0.0000000   0.0000000
 AtZNuc=   6.0000000   6.0000000   6.0000000   8.0000000   6.0000000   6.0000000   6.0000000   6.0000000   8.0000000   8.0000000

  Atom        11          12          13          14          15          16
 IAtWgt=           1           1           1           1           1           1
 AtmWgt=   1.0078250   1.0078250   1.0078250   1.0078250   1.0078250   1.0078250
 NucSpn=           1           1           1           1           1           1
 AtZEff=   0.0000000   0.0000000   0.0000000   0.0000000   0.0000000   0.0000000
 NQMom=    0.0000000   0.0000000   0.0000000   0.0000000   0.0000000   0.0000000
 NMagM=    2.7928460   2.7928460   2.7928460   2.7928460   2.7928460   2.7928460
 AtZNuc=   1.0000000   1.0000000   1.0000000   1.0000000   1.0000000   1.0000000
 Leave Link  101 at Thu Jul  6 18:07:50 2023, MaxMem=   458752000 cpu:         0.2
 (Enter /opt/apps/apps/binapps/gaussian/g09d01_em64t/g09/l103.exe)

 GradGradGradGradGradGradGradGradGradGradGradGradGradGradGradGradGradGrad
 Berny optimization.
 Initialization pass.
                           ----------------------------
                           !    Initial Parameters    !
                           ! (Angstroms and Degrees)  !
 --------------------------                            --------------------------
 ! Name  Definition              Value          Derivative Info.                !
 --------------------------------------------------------------------------------
 ! R1    R(1,2)                  1.4651         estimate D2E/DX2                !
 ! R2    R(1,9)                  1.2326         estimate D2E/DX2                !
 ! R3    R(1,10)                 1.3502         estimate D2E/DX2                !
 ! R4    R(2,3)                  1.4203         estimate D2E/DX2                !
 ! R5    R(2,8)                  1.4093         estimate D2E/DX2                !
 ! R6    R(3,4)                  1.3438         estimate D2E/DX2                !
 ! R7    R(3,5)                  1.4044         estimate D2E/DX2                !
 ! R8    R(4,11)                 0.988          estimate D2E/DX2                !
 ! R9    R(5,6)                  1.3869         estimate D2E/DX2                !
 ! R10   R(5,12)                 1.085          estimate D2E/DX2                !
 ! R11   R(6,7)                  1.4046         estimate D2E/DX2                !
 ! R12   R(6,13)                 1.0869         estimate D2E/DX2                !
 ! R13   R(7,8)                  1.3852         estimate D2E/DX2                !
 ! R14   R(7,14)                 1.0854         estimate D2E/DX2                !
 ! R15   R(8,15)                 1.0846         estimate D2E/DX2                !
 ! R16   R(10,16)                0.9752         estimate D2E/DX2                !
 ! A1    A(2,1,9)              124.6644         estimate D2E/DX2                !
 ! A2    A(2,1,10)             114.7639         estimate D2E/DX2                !
 ! A3    A(9,1,10)             120.5717         estimate D2E/DX2                !
 ! A4    A(1,2,3)              118.7826         estimate D2E/DX2                !
 ! A5    A(1,2,8)              121.8043         estimate D2E/DX2                !
 ! A6    A(3,2,8)              119.413          estimate D2E/DX2                !
 ! A7    A(2,3,4)              123.1975         estimate D2E/DX2                !
 ! A8    A(2,3,5)              119.1809         estimate D2E/DX2                !
 ! A9    A(4,3,5)              117.6217         estimate D2E/DX2                !
 ! A10   A(3,4,11)             107.4466         estimate D2E/DX2                !
 ! A11   A(3,5,6)              120.2296         estimate D2E/DX2                !
 ! A12   A(3,5,12)             117.9987         estimate D2E/DX2                !
 ! A13   A(6,5,12)             121.7717         estimate D2E/DX2                !
 ! A14   A(5,6,7)              121.0158         estimate D2E/DX2                !
 ! A15   A(5,6,13)             119.2444         estimate D2E/DX2                !
 ! A16   A(7,6,13)             119.7399         estimate D2E/DX2                !
 ! A17   A(6,7,8)              119.2957         estimate D2E/DX2                !
 ! A18   A(6,7,14)             120.3859         estimate D2E/DX2                !
 ! A19   A(8,7,14)             120.3184         estimate D2E/DX2                !
 ! A20   A(2,8,7)              120.865          estimate D2E/DX2                !
 ! A21   A(2,8,15)             118.6015         estimate D2E/DX2                !
 ! A22   A(7,8,15)             120.5334         estimate D2E/DX2                !
 ! A23   A(1,10,16)            106.0534         estimate D2E/DX2                !
 ! D1    D(9,1,2,3)              0.0125         estimate D2E/DX2                !
 ! D2    D(9,1,2,8)           -179.987          estimate D2E/DX2                !
 ! D3    D(10,1,2,3)           179.9927         Frozen                          !
 ! D4    D(10,1,2,8)            -0.0068         estimate D2E/DX2                !
 ! D5    D(2,1,10,16)         -179.9901         estimate D2E/DX2                !
 ! D6    D(9,1,10,16)           -0.009          estimate D2E/DX2                !
 ! D7    D(1,2,3,4)              0.0017         estimate D2E/DX2                !
 ! D8    D(1,2,3,5)           -179.999          estimate D2E/DX2                !
 ! D9    D(8,2,3,4)           -179.9988         estimate D2E/DX2                !
 ! D10   D(8,2,3,5)              0.0005         estimate D2E/DX2                !
 ! D11   D(1,2,8,7)            179.9989         estimate D2E/DX2                !
 ! D12   D(1,2,8,15)             0.0002         estimate D2E/DX2                !
 ! D13   D(3,2,8,7)             -0.0006         estimate D2E/DX2                !
 ! D14   D(3,2,8,15)          -179.9993         estimate D2E/DX2                !
 ! D15   D(2,3,4,11)             0.0029         estimate D2E/DX2                !
 ! D16   D(5,3,4,11)          -179.9964         estimate D2E/DX2                !
 ! D17   D(2,3,5,6)             -0.0005         estimate D2E/DX2                !
 ! D18   D(2,3,5,12)           180.0            estimate D2E/DX2                !
 ! D19   D(4,3,5,6)            179.9989         estimate D2E/DX2                !
 ! D20   D(4,3,5,12)            -0.0007         estimate D2E/DX2                !
 ! D21   D(3,5,6,7)              0.0004         estimate D2E/DX2                !
 ! D22   D(3,5,6,13)          -179.9996         estimate D2E/DX2                !
 ! D23   D(12,5,6,7)           180.0            estimate D2E/DX2                !
 ! D24   D(12,5,6,13)           -0.0001         estimate D2E/DX2                !
 ! D25   D(5,6,7,8)             -0.0005         estimate D2E/DX2                !
 ! D26   D(5,6,7,14)           179.9999         estimate D2E/DX2                !
 ! D27   D(13,6,7,8)           179.9996         estimate D2E/DX2                !
 ! D28   D(13,6,7,14)           -0.0001         estimate D2E/DX2                !
 ! D29   D(6,7,8,2)              0.0005         estimate D2E/DX2                !
 ! D30   D(6,7,8,15)           179.9993         estimate D2E/DX2                !
 ! D31   D(14,7,8,2)          -179.9998         estimate D2E/DX2                !
 ! D32   D(14,7,8,15)           -0.0011         estimate D2E/DX2                !
 --------------------------------------------------------------------------------
 Trust Radius=3.00D-01 FncErr=1.00D-07 GrdErr=1.00D-06
 Number of steps in this run=     81 maximum allowed number of steps=    100.
 GradGradGradGradGradGradGradGradGradGradGradGradGradGradGradGradGradGrad

 Leave Link  103 at Thu Jul  6 18:07:50 2023, MaxMem=   458752000 cpu:         0.0
 (Enter /opt/apps/apps/binapps/gaussian/g09d01_em64t/g09/l202.exe)
                          Input orientation:                          
 ---------------------------------------------------------------------
 Center     Atomic      Atomic             Coordinates (Angstroms)
 Number     Number       Type             X           Y           Z
 ---------------------------------------------------------------------
      1          6           0        1.666810   -0.213120   -0.000100
      2          6           0        0.202090   -0.246930   -0.000060
      3          6           0       -0.510310    0.981780   -0.000020
      4          8           0        0.093440    2.182330   -0.000050
      5          6           0       -1.914560    0.959130    0.000040
      6          6           0       -2.593420   -0.250310    0.000050
      7          6           0       -1.897940   -1.470670    0.000010
      8          6           0       -0.512780   -1.461410   -0.000050
      9          8           0        2.344280    0.816580    0.000120
     10          8           0        2.260520   -1.425770    0.000020
     11          1           0        1.068590    2.023500   -0.000150
     12          1           0       -2.439320    1.908840    0.000070
     13          1           0       -3.680350   -0.249150    0.000090
     14          1           0       -2.439600   -2.411300    0.000020
     15          1           0        0.044470   -2.391900   -0.000070
     16          1           0        3.220850   -1.255870    0.000140
 ---------------------------------------------------------------------
                    Distance matrix (angstroms):
                    1          2          3          4          5
     1  C    0.000000
     2  C    1.465110   0.000000
     3  C    2.483473   1.420296   0.000000
     4  O    2.865951   2.431689   1.343813   0.000000
     5  C    3.768339   2.436142   1.404433   2.351230   0.000000
     6  C    4.260392   2.795512   2.420205   3.624494   1.386938
     7  C    3.780063   2.430569   2.817806   4.160529   2.429857
     8  C    2.511741   1.409255   2.443191   3.693825   2.797142
     9  O    1.232578   2.391659   2.859366   2.632784   4.261225
    10  O    1.350189   2.372087   3.670667   4.208874   4.808226
    11  H    2.315240   2.430159   1.891588   0.988000   3.167344
    12  H    4.622014   3.409456   2.140215   2.547483   1.085045
    13  H    5.347281   3.882441   3.400639   4.489275   2.139616
    14  H    4.657746   3.415117   3.903223   5.245734   3.411080
    15  H    2.716444   2.150753   3.418991   4.574492   3.881649
    16  H    1.871461   3.182903   4.350705   4.647786   5.592733
                    6          7          8          9         10
     6  C    0.000000
     7  C    1.404625   0.000000
     8  C    2.407452   1.385191   0.000000
     9  O    5.051647   4.819538   3.654043   0.000000
    10  O    4.994241   4.158702   2.773529   2.243914   0.000000
    11  H    4.310514   4.583615   3.826922   1.756144   3.649406
    12  H    2.164642   3.422598   3.882028   4.906716   5.762649
    13  H    1.086931   2.160809   3.391618   6.118165   6.056267
    14  H    2.166458   1.085440   2.148238   5.771024   4.802332
    15  H    3.397774   2.149796   1.084592   3.947590   2.417496
    16  H    5.900584   5.123295   3.739283   2.250205   0.975243
                   11         12         13         14         15
    11  H    0.000000
    12  H    3.509783   0.000000
    13  H    5.264729   2.489393   0.000000
    14  H    5.654631   4.320140   2.492860   0.000000
    15  H    4.532613   4.966445   4.297169   2.484146   0.000000
    16  H    3.922562   6.484822   6.974242   5.777172   3.373419
                   16
    16  H    0.000000
 Stoichiometry    C7H6O3
 Framework group  C1[X(C7H6O3)]
 Deg. of freedom    42
 Full point group                 C1      NOp   1
 Largest Abelian subgroup         C1      NOp   1
 Largest concise Abelian subgroup C1      NOp   1
                         Standard orientation:                         
 ---------------------------------------------------------------------
 Center     Atomic      Atomic             Coordinates (Angstroms)
 Number     Number       Type             X           Y           Z
 ---------------------------------------------------------------------
      1          6           0        1.666811   -0.213121   -0.000101
      2          6           0        0.202091   -0.246931   -0.000061
      3          6           0       -0.510308    0.981779   -0.000021
      4          8           0        0.093442    2.182329   -0.000051
      5          6           0       -1.914558    0.959130    0.000039
      6          6           0       -2.593419   -0.250310    0.000049
      7          6           0       -1.897939   -1.470670    0.000009
      8          6           0       -0.512779   -1.461411   -0.000051
      9          8           0        2.344282    0.816578    0.000119
     10          8           0        2.260521   -1.425772    0.000019
     11          1           0        1.068592    2.023499   -0.000151
     12          1           0       -2.439318    1.908840    0.000069
     13          1           0       -3.680349   -0.249150    0.000089
     14          1           0       -2.439599   -2.411300    0.000019
     15          1           0        0.044471   -2.391901   -0.000071
     16          1           0        3.220851   -1.255872    0.000139
 ---------------------------------------------------------------------
 Rotational constants (GHZ):      2.3331172      1.2179698      0.8002244
 Leave Link  202 at Thu Jul  6 18:07:50 2023, MaxMem=   458752000 cpu:         0.0
 (Enter /opt/apps/apps/binapps/gaussian/g09d01_em64t/g09/l301.exe)
 Standard basis: 6-31G(d) (6D, 7F)
 Ernie: Thresh=  0.10000D-02 Tol=  0.10000D-05 Strict=F.
 There are   162 symmetry adapted cartesian basis functions of A   symmetry.
 There are   162 symmetry adapted basis functions of A   symmetry.
   162 basis functions,   304 primitive gaussians,   162 cartesian basis functions
    36 alpha electrons       36 beta electrons
       nuclear repulsion energy       501.9530372461 Hartrees.
 IExCor=  402 DFT=T Ex+Corr=B3LYP ExCW=0 ScaHFX=  0.200000
 ScaDFX=  0.800000  0.720000  1.000000  0.810000 ScalE2=  1.000000  1.000000
 IRadAn=      0 IRanWt=     -1 IRanGd=            0 ICorTp=0 IEmpDi=131
 NAtoms=   16 NActive=   16 NUniq=   16 SFac= 1.00D+00 NAtFMM=   60 NAOKFM=F Big=F
 Integral buffers will be    131072 words long.
 Raffenetti 2 integral format.
 Two-electron integral symmetry is turned on.
 R6Disp:  Grimme-D3 Dispersion energy=       -0.0110016176 Hartrees.
 Nuclear repulsion after empirical dispersion term =      501.9420356285 Hartrees.
 Leave Link  301 at Thu Jul  6 18:07:50 2023, MaxMem=   458752000 cpu:         0.0
 (Enter /opt/apps/apps/binapps/gaussian/g09d01_em64t/g09/l302.exe)
 NPDir=0 NMtPBC=     1 NCelOv=     1 NCel=       1 NClECP=     1 NCelD=      1
         NCelK=      1 NCelE2=     1 NClLst=     1 CellRange=     0.0.
 One-electron integrals computed using PRISM.
 NBasis=   162 RedAO= T EigKep=  4.31D-04  NBF=   162
 NBsUse=   162 1.00D-06 EigRej= -1.00D+00 NBFU=   162
 Precomputing XC quadrature grid using
 IXCGrd= 4 IRadAn=           0 IRanWt=          -1 IRanGd=           0 AccXCQ= 0.00D+00.
 Generated NRdTot=       0 NPtTot=           0 NUsed=           0 NTot=          32
 NSgBfM=   162   162   162   162   162 MxSgAt=    16 MxSgA2=    16.
 Leave Link  302 at Thu Jul  6 18:07:50 2023, MaxMem=   458752000 cpu:         0.2
 (Enter /opt/apps/apps/binapps/gaussian/g09d01_em64t/g09/l303.exe)
 DipDrv:  MaxL=1.
 Leave Link  303 at Thu Jul  6 18:07:50 2023, MaxMem=   458752000 cpu:         0.0
 (Enter /opt/apps/apps/binapps/gaussian/g09d01_em64t/g09/l401.exe)
 ExpMin= 1.61D-01 ExpMax= 5.48D+03 ExpMxC= 8.25D+02 IAcc=1 IRadAn=         1 AccDes= 0.00D+00
 Harris functional with IExCor=  402 and IRadAn=       1 diagonalized for initial guess.
 HarFok:  IExCor=  402 AccDes= 0.00D+00 IRadAn=         1 IDoV= 1 UseB2=F ITyADJ=14
 ICtDFT=  3500011 ScaDFX=  1.000000  1.000000  1.000000  1.000000
 FoFCou: FMM=F IPFlag=           0 FMFlag=      100000 FMFlg1=           0
         NFxFlg=           0 DoJE=T BraDBF=F KetDBF=T FulRan=T
         wScrn=  0.000000 ICntrl=     500 IOpCl=  0 I1Cent=   200000004 NGrid=           0
         NMat0=    1 NMatS0=      1 NMatT0=    0 NMatD0=    1 NMtDS0=    0 NMtDT0=    0
 Petite list used in FoFCou.
 Harris En= -496.076943737526    
 JPrj=0 DoOrth=F DoCkMO=F.
 Leave Link  401 at Thu Jul  6 18:07:51 2023, MaxMem=   458752000 cpu:         0.9
 (Enter /opt/apps/apps/binapps/gaussian/g09d01_em64t/g09/l502.exe)
 Closed shell SCF:
 Using DIIS extrapolation, IDIIS=  1040.
 Integral symmetry usage will be decided dynamically.
 Keep R1 ints in memory in canonical form, NReq=89430970.
 IVT=       99472 IEndB=       99472 NGot=   458752000 MDV=   371486323
 LenX=   371486323 LenY=   371459638
 Requested convergence on RMS density matrix=1.00D-08 within 128 cycles.
 Requested convergence on MAX density matrix=1.00D-06.
 Requested convergence on             energy=1.00D-06.
 No special actions if energy rises.
 FoFCou: FMM=F IPFlag=           0 FMFlag=           0 FMFlg1=           0
         NFxFlg=           0 DoJE=F BraDBF=F KetDBF=F FulRan=T
         wScrn=  0.000000 ICntrl=     600 IOpCl=  0 I1Cent=           0 NGrid=           0
         NMat0=    1 NMatS0=  13203 NMatT0=    0 NMatD0=    1 NMtDS0=    0 NMtDT0=    0
 Symmetry not used in FoFCou.
 Integral accuracy reduced to 1.0D-05 until final iterations.

 Cycle   1  Pass 0  IDiag  1:
 E= -495.828706347033    
 DIIS: error= 3.71D-02 at cycle   1 NSaved=   1.
 NSaved= 1 IEnMin= 1 EnMin= -495.828706347033     IErMin= 1 ErrMin= 3.71D-02
 ErrMax= 3.71D-02  0.00D+00 EMaxC= 1.00D-01 BMatC= 2.70D-01 BMatP= 2.70D-01
 IDIUse=3 WtCom= 6.29D-01 WtEn= 3.71D-01
 Coeff-Com:  0.100D+01
 Coeff-En:   0.100D+01
 Coeff:      0.100D+01
 Gap=     0.165 Goal=   None    Shift=    0.000
 GapD=    0.165 DampG=1.000 DampE=0.500 DampFc=0.5000 IDamp=-1.
 Damping current iteration by 5.00D-01
 RMSDP=6.90D-03 MaxDP=1.71D-01              OVMax= 1.94D-01

 Cycle   2  Pass 0  IDiag  1:
 E= -495.914275527189     Delta-E=       -0.085569180157 Rises=F Damp=T
 DIIS: error= 1.26D-02 at cycle   2 NSaved=   2.
 NSaved= 2 IEnMin= 2 EnMin= -495.914275527189     IErMin= 2 ErrMin= 1.26D-02
 ErrMax= 1.26D-02  0.00D+00 EMaxC= 1.00D-01 BMatC= 2.73D-02 BMatP= 2.70D-01
 IDIUse=3 WtCom= 8.74D-01 WtEn= 1.26D-01
 Coeff-Com:  0.155D+00 0.845D+00
 Coeff-En:   0.244D+00 0.756D+00
 Coeff:      0.166D+00 0.834D+00
 Gap=     0.174 Goal=   None    Shift=    0.000
 RMSDP=1.88D-03 MaxDP=4.93D-02 DE=-8.56D-02 OVMax= 1.61D-01

 Cycle   3  Pass 0  IDiag  1:
 E= -496.039865988008     Delta-E=       -0.125590460819 Rises=F Damp=F
 DIIS: error= 1.21D-02 at cycle   3 NSaved=   3.
 NSaved= 3 IEnMin= 3 EnMin= -496.039865988008     IErMin= 3 ErrMin= 1.21D-02
 ErrMax= 1.21D-02  0.00D+00 EMaxC= 1.00D-01 BMatC= 2.47D-02 BMatP= 2.73D-02
 IDIUse=3 WtCom= 8.79D-01 WtEn= 1.21D-01
 Coeff-Com:  0.381D-01 0.484D+00 0.478D+00
 Coeff-En:   0.000D+00 0.000D+00 0.100D+01
 Coeff:      0.335D-01 0.425D+00 0.541D+00
 Gap=     0.177 Goal=   None    Shift=    0.000
 RMSDP=1.36D-03 MaxDP=4.25D-02 DE=-1.26D-01 OVMax= 7.04D-02

 Cycle   4  Pass 0  IDiag  1:
 E= -496.055757912123     Delta-E=       -0.015891924115 Rises=F Damp=F
 DIIS: error= 6.88D-03 at cycle   4 NSaved=   4.
 NSaved= 4 IEnMin= 4 EnMin= -496.055757912123     IErMin= 4 ErrMin= 6.88D-03
 ErrMax= 6.88D-03  0.00D+00 EMaxC= 1.00D-01 BMatC= 7.28D-03 BMatP= 2.47D-02
 IDIUse=3 WtCom= 9.31D-01 WtEn= 6.88D-02
 Coeff-Com:  0.591D-02 0.109D+00 0.356D+00 0.529D+00
 Coeff-En:   0.000D+00 0.000D+00 0.254D+00 0.746D+00
 Coeff:      0.550D-02 0.101D+00 0.349D+00 0.544D+00
 Gap=     0.175 Goal=   None    Shift=    0.000
 RMSDP=5.38D-04 MaxDP=1.87D-02 DE=-1.59D-02 OVMax= 2.99D-02

 Cycle   5  Pass 0  IDiag  1:
 E= -496.061306017462     Delta-E=       -0.005548105339 Rises=F Damp=F
 DIIS: error= 2.11D-03 at cycle   5 NSaved=   5.
 NSaved= 5 IEnMin= 5 EnMin= -496.061306017462     IErMin= 5 ErrMin= 2.11D-03
 ErrMax= 2.11D-03  0.00D+00 EMaxC= 1.00D-01 BMatC= 5.25D-04 BMatP= 7.28D-03
 IDIUse=3 WtCom= 9.79D-01 WtEn= 2.11D-02
 Coeff-Com:  0.110D-02 0.158D-01 0.161D+00 0.331D+00 0.491D+00
 Coeff-En:   0.000D+00 0.000D+00 0.000D+00 0.000D+00 0.100D+01
 Coeff:      0.108D-02 0.155D-01 0.158D+00 0.324D+00 0.501D+00
 Gap=     0.176 Goal=   None    Shift=    0.000
 RMSDP=1.57D-04 MaxDP=4.22D-03 DE=-5.55D-03 OVMax= 7.40D-03

 Cycle   6  Pass 0  IDiag  1:
 E= -496.061720235397     Delta-E=       -0.000414217935 Rises=F Damp=F
 DIIS: error= 4.30D-04 at cycle   6 NSaved=   6.
 NSaved= 6 IEnMin= 6 EnMin= -496.061720235397     IErMin= 6 ErrMin= 4.30D-04
 ErrMax= 4.30D-04  0.00D+00 EMaxC= 1.00D-01 BMatC= 3.58D-05 BMatP= 5.25D-04
 IDIUse=3 WtCom= 9.96D-01 WtEn= 4.30D-03
 Coeff-Com:  0.657D-04 0.102D-02 0.581D-01 0.131D+00 0.282D+00 0.528D+00
 Coeff-En:   0.000D+00 0.000D+00 0.000D+00 0.000D+00 0.106D-01 0.989D+00
 Coeff:      0.654D-04 0.102D-02 0.579D-01 0.131D+00 0.281D+00 0.530D+00
 Gap=     0.176 Goal=   None    Shift=    0.000
 RMSDP=4.53D-05 MaxDP=1.04D-03 DE=-4.14D-04 OVMax= 3.00D-03

 Cycle   7  Pass 0  IDiag  1:
 E= -496.061751771198     Delta-E=       -0.000031535801 Rises=F Damp=F
 DIIS: error= 1.33D-04 at cycle   7 NSaved=   7.
 NSaved= 7 IEnMin= 7 EnMin= -496.061751771198     IErMin= 7 ErrMin= 1.33D-04
 ErrMax= 1.33D-04  0.00D+00 EMaxC= 1.00D-01 BMatC= 3.29D-06 BMatP= 3.58D-05
 IDIUse=3 WtCom= 9.99D-01 WtEn= 1.33D-03
 Coeff-Com: -0.798D-04-0.757D-03 0.192D-01 0.457D-01 0.120D+00 0.309D+00
 Coeff-Com:  0.507D+00
 Coeff-En:   0.000D+00 0.000D+00 0.000D+00 0.000D+00 0.000D+00 0.327D-01
 Coeff-En:   0.967D+00
 Coeff:     -0.797D-04-0.756D-03 0.192D-01 0.456D-01 0.120D+00 0.308D+00
 Coeff:      0.508D+00
 Gap=     0.176 Goal=   None    Shift=    0.000
 RMSDP=1.27D-05 MaxDP=3.30D-04 DE=-3.15D-05 OVMax= 7.89D-04

 Cycle   8  Pass 0  IDiag  1:
 E= -496.061755049888     Delta-E=       -0.000003278690 Rises=F Damp=F
 DIIS: error= 3.38D-05 at cycle   8 NSaved=   8.
 NSaved= 8 IEnMin= 8 EnMin= -496.061755049888     IErMin= 8 ErrMin= 3.38D-05
 ErrMax= 3.38D-05  0.00D+00 EMaxC= 1.00D-01 BMatC= 1.91D-07 BMatP= 3.29D-06
 IDIUse=1 WtCom= 1.00D+00 WtEn= 0.00D+00
 Coeff-Com: -0.412D-04-0.562D-03 0.592D-02 0.147D-01 0.452D-01 0.128D+00
 Coeff-Com:  0.265D+00 0.542D+00
 Coeff:     -0.412D-04-0.562D-03 0.592D-02 0.147D-01 0.452D-01 0.128D+00
 Coeff:      0.265D+00 0.542D+00
 Gap=     0.176 Goal=   None    Shift=    0.000
 RMSDP=3.33D-06 MaxDP=7.23D-05 DE=-3.28D-06 OVMax= 2.09D-04

 Initial convergence to 1.0D-05 achieved.  Increase integral accuracy.
 Cycle   9  Pass 1  IDiag  1:
 E= -496.061768988685     Delta-E=       -0.000013938797 Rises=F Damp=F
 DIIS: error= 4.28D-05 at cycle   1 NSaved=   1.
 NSaved= 1 IEnMin= 1 EnMin= -496.061768988685     IErMin= 1 ErrMin= 4.28D-05
 ErrMax= 4.28D-05  0.00D+00 EMaxC= 1.00D-01 BMatC= 1.08D-07 BMatP= 1.08D-07
 IDIUse=1 WtCom= 1.00D+00 WtEn= 0.00D+00
 Coeff-Com:  0.100D+01
 Coeff:      0.100D+01
 Gap=     0.176 Goal=   None    Shift=    0.000
 RMSDP=3.33D-06 MaxDP=7.23D-05 DE=-1.39D-05 OVMax= 1.35D-04

 Cycle  10  Pass 1  IDiag  1:
 E= -496.061769089245     Delta-E=       -0.000000100560 Rises=F Damp=F
 DIIS: error= 1.38D-05 at cycle   2 NSaved=   2.
 NSaved= 2 IEnMin= 2 EnMin= -496.061769089245     IErMin= 2 ErrMin= 1.38D-05
 ErrMax= 1.38D-05  0.00D+00 EMaxC= 1.00D-01 BMatC= 4.10D-08 BMatP= 1.08D-07
 IDIUse=1 WtCom= 1.00D+00 WtEn= 0.00D+00
 Coeff-Com:  0.328D+00 0.672D+00
 Coeff:      0.328D+00 0.672D+00
 Gap=     0.176 Goal=   None    Shift=    0.000
 RMSDP=2.29D-06 MaxDP=5.82D-05 DE=-1.01D-07 OVMax= 1.63D-04

 Cycle  11  Pass 1  IDiag  1:
 E= -496.061769097836     Delta-E=       -0.000000008591 Rises=F Damp=F
 DIIS: error= 1.28D-05 at cycle   3 NSaved=   3.
 NSaved= 3 IEnMin= 3 EnMin= -496.061769097836     IErMin= 3 ErrMin= 1.28D-05
 ErrMax= 1.28D-05  0.00D+00 EMaxC= 1.00D-01 BMatC= 3.08D-08 BMatP= 4.10D-08
 IDIUse=1 WtCom= 1.00D+00 WtEn= 0.00D+00
 Coeff-Com: -0.545D-02 0.464D+00 0.541D+00
 Coeff:     -0.545D-02 0.464D+00 0.541D+00
 Gap=     0.176 Goal=   None    Shift=    0.000
 RMSDP=1.25D-06 MaxDP=3.01D-05 DE=-8.59D-09 OVMax= 8.80D-05

 Cycle  12  Pass 1  IDiag  1:
 E= -496.061769127685     Delta-E=       -0.000000029849 Rises=F Damp=F
 DIIS: error= 2.77D-06 at cycle   4 NSaved=   4.
 NSaved= 4 IEnMin= 4 EnMin= -496.061769127685     IErMin= 4 ErrMin= 2.77D-06
 ErrMax= 2.77D-06  0.00D+00 EMaxC= 1.00D-01 BMatC= 1.10D-09 BMatP= 3.08D-08
 IDIUse=1 WtCom= 1.00D+00 WtEn= 0.00D+00
 Coeff-Com: -0.133D-01 0.238D+00 0.308D+00 0.467D+00
 Coeff:     -0.133D-01 0.238D+00 0.308D+00 0.467D+00
 Gap=     0.176 Goal=   None    Shift=    0.000
 RMSDP=2.21D-07 MaxDP=6.19D-06 DE=-2.98D-08 OVMax= 1.23D-05

 Cycle  13  Pass 1  IDiag  1:
 E= -496.061769128658     Delta-E=       -0.000000000973 Rises=F Damp=F
 DIIS: error= 6.08D-07 at cycle   5 NSaved=   5.
 NSaved= 5 IEnMin= 5 EnMin= -496.061769128658     IErMin= 5 ErrMin= 6.08D-07
 ErrMax= 6.08D-07  0.00D+00 EMaxC= 1.00D-01 BMatC= 5.62D-11 BMatP= 1.10D-09
 IDIUse=1 WtCom= 1.00D+00 WtEn= 0.00D+00
 Coeff-Com: -0.651D-02 0.950D-01 0.130D+00 0.248D+00 0.534D+00
 Coeff:     -0.651D-02 0.950D-01 0.130D+00 0.248D+00 0.534D+00
 Gap=     0.176 Goal=   None    Shift=    0.000
 RMSDP=5.44D-08 MaxDP=1.59D-06 DE=-9.73D-10 OVMax= 2.02D-06

 Cycle  14  Pass 1  IDiag  1:
 E= -496.061769128696     Delta-E=       -0.000000000038 Rises=F Damp=F
 DIIS: error= 2.77D-07 at cycle   6 NSaved=   6.
 NSaved= 6 IEnMin= 6 EnMin= -496.061769128696     IErMin= 6 ErrMin= 2.77D-07
 ErrMax= 2.77D-07  0.00D+00 EMaxC= 1.00D-01 BMatC= 7.72D-12 BMatP= 5.62D-11
 IDIUse=1 WtCom= 1.00D+00 WtEn= 0.00D+00
 Coeff-Com: -0.220D-02 0.287D-01 0.416D-01 0.900D-01 0.313D+00 0.529D+00
 Coeff:     -0.220D-02 0.287D-01 0.416D-01 0.900D-01 0.313D+00 0.529D+00
 Gap=     0.176 Goal=   None    Shift=    0.000
 RMSDP=1.71D-08 MaxDP=5.67D-07 DE=-3.75D-11 OVMax= 9.81D-07

 Cycle  15  Pass 1  IDiag  1:
 E= -496.061769128703     Delta-E=       -0.000000000008 Rises=F Damp=F
 DIIS: error= 7.46D-08 at cycle   7 NSaved=   7.
 NSaved= 7 IEnMin= 7 EnMin= -496.061769128703     IErMin= 7 ErrMin= 7.46D-08
 ErrMax= 7.46D-08  0.00D+00 EMaxC= 1.00D-01 BMatC= 8.33D-13 BMatP= 7.72D-12
 IDIUse=1 WtCom= 1.00D+00 WtEn= 0.00D+00
 Coeff-Com: -0.505D-03 0.480D-02 0.803D-02 0.205D-01 0.115D+00 0.297D+00
 Coeff-Com:  0.556D+00
 Coeff:     -0.505D-03 0.480D-02 0.803D-02 0.205D-01 0.115D+00 0.297D+00
 Coeff:      0.556D+00
 Gap=     0.176 Goal=   None    Shift=    0.000
 RMSDP=7.12D-09 MaxDP=2.18D-07 DE=-7.50D-12 OVMax= 3.83D-07

 SCF Done:  E(RB3LYP) =  -496.061769129     A.U. after   15 cycles
            NFock= 15  Conv=0.71D-08     -V/T= 2.0092
 KE= 4.915560141700D+02 PE=-2.162284077738D+03 EE= 6.727242588108D+02
 Leave Link  502 at Thu Jul  6 18:08:26 2023, MaxMem=   458752000 cpu:        34.5
 (Enter /opt/apps/apps/binapps/gaussian/g09d01_em64t/g09/l601.exe)
 Copying SCF densities to generalized density rwf, IOpCl= 0 IROHF=0.

 **********************************************************************

            Population analysis using the SCF density.

 **********************************************************************

 Orbital symmetries:
       Occupied  (A) (A) (A) (A) (A) (A) (A) (A) (A) (A) (A) (A)
                 (A) (A) (A) (A) (A) (A) (A) (A) (A) (A) (A) (A)
                 (A) (A) (A) (A) (A) (A) (A) (A) (A) (A) (A) (A)
       Virtual   (A) (A) (A) (A) (A) (A) (A) (A) (A) (A) (A) (A)
                 (A) (A) (A) (A) (A) (A) (A) (A) (A) (A) (A) (A)
                 (A) (A) (A) (A) (A) (A) (A) (A) (A) (A) (A) (A)
                 (A) (A) (A) (A) (A) (A) (A) (A) (A) (A) (A) (A)
                 (A) (A) (A) (A) (A) (A) (A) (A) (A) (A) (A) (A)
                 (A) (A) (A) (A) (A) (A) (A) (A) (A) (A) (A) (A)
                 (A) (A) (A) (A) (A) (A) (A) (A) (A) (A) (A) (A)
                 (A) (A) (A) (A) (A) (A) (A) (A) (A) (A) (A) (A)
                 (A) (A) (A) (A) (A) (A) (A) (A) (A) (A) (A) (A)
                 (A) (A) (A) (A) (A) (A) (A) (A) (A) (A) (A) (A)
                 (A) (A) (A) (A) (A) (A)
 The electronic state is 1-A.
 Alpha  occ. eigenvalues --  -19.20964 -19.17263 -19.15633 -10.33748 -10.26664
 Alpha  occ. eigenvalues --  -10.20940 -10.20675 -10.20627 -10.19353 -10.19322
 Alpha  occ. eigenvalues --   -1.12059  -1.06359  -1.02363  -0.86117  -0.77687
 Alpha  occ. eigenvalues --   -0.74783  -0.67085  -0.62337  -0.60675  -0.54260
 Alpha  occ. eigenvalues --   -0.52333  -0.50287  -0.47685  -0.46317  -0.46183
 Alpha  occ. eigenvalues --   -0.44047  -0.41068  -0.40765  -0.39279  -0.37962
 Alpha  occ. eigenvalues --   -0.35197  -0.34121  -0.33228  -0.29189  -0.26607
 Alpha  occ. eigenvalues --   -0.22941
 Alpha virt. eigenvalues --   -0.05334   0.00309   0.05026   0.06628   0.09623
 Alpha virt. eigenvalues --    0.13991   0.15187   0.16928   0.17407   0.18195
 Alpha virt. eigenvalues --    0.22419   0.24758   0.26301   0.29594   0.32517
 Alpha virt. eigenvalues --    0.34557   0.37799   0.38588   0.48499   0.49849
 Alpha virt. eigenvalues --    0.50328   0.53861   0.54256   0.55155   0.58089
 Alpha virt. eigenvalues --    0.59122   0.59763   0.59906   0.60563   0.61802
 Alpha virt. eigenvalues --    0.63201   0.64895   0.65369   0.69439   0.71781
 Alpha virt. eigenvalues --    0.73592   0.78365   0.78690   0.81932   0.82402
 Alpha virt. eigenvalues --    0.84881   0.87533   0.89757   0.91171   0.91299
 Alpha virt. eigenvalues --    0.91925   0.96732   0.97690   1.00394   1.02130
 Alpha virt. eigenvalues --    1.02183   1.05510   1.06751   1.10022   1.15275
 Alpha virt. eigenvalues --    1.17342   1.23092   1.25355   1.28435   1.28649
 Alpha virt. eigenvalues --    1.29834   1.34498   1.37343   1.39405   1.43935
 Alpha virt. eigenvalues --    1.44171   1.45901   1.47105   1.48892   1.54482
 Alpha virt. eigenvalues --    1.66241   1.67641   1.72501   1.72710   1.75828
 Alpha virt. eigenvalues --    1.76304   1.77191   1.79606   1.84659   1.84792
 Alpha virt. eigenvalues --    1.88900   1.90380   1.92500   1.95234   1.97269
 Alpha virt. eigenvalues --    2.00014   2.00272   2.05181   2.10492   2.12994
 Alpha virt. eigenvalues --    2.13481   2.22997   2.26648   2.27028   2.29796
 Alpha virt. eigenvalues --    2.33565   2.37005   2.40718   2.44265   2.49982
 Alpha virt. eigenvalues --    2.52223   2.60241   2.60256   2.62138   2.67718
 Alpha virt. eigenvalues --    2.67905   2.69996   2.73768   2.79978   2.83255
 Alpha virt. eigenvalues --    2.89247   2.91680   2.99421   3.07891   3.23813
 Alpha virt. eigenvalues --    3.43016   3.86282   3.99845   4.07824   4.10060
 Alpha virt. eigenvalues --    4.18168   4.24045   4.38339   4.41408   4.55993
 Alpha virt. eigenvalues --    4.76732
          Condensed to atoms (all electrons):
               1          2          3          4          5          6
     1  C    4.431421   0.326109  -0.049552  -0.008827   0.007495  -0.000001
     2  C    0.326109   5.121913   0.421577  -0.062488  -0.056425  -0.033131
     3  C   -0.049552   0.421577   4.612376   0.333937   0.501707  -0.010745
     4  O   -0.008827  -0.062488   0.333937   8.252714  -0.061065   0.003212
     5  C    0.007495  -0.056425   0.501707  -0.061065   4.982677   0.540764
     6  C   -0.000001  -0.033131  -0.010745   0.003212   0.540764   4.851038
     7  C    0.005216  -0.017734  -0.041892   0.000120  -0.029612   0.521628
     8  C   -0.045914   0.467788  -0.028455   0.004114  -0.041030  -0.029068
     9  O    0.481092  -0.076761  -0.002416  -0.031411   0.000529  -0.000015
    10  O    0.302803  -0.085703   0.002008  -0.000024  -0.000075   0.000003
    11  H   -0.000167  -0.015362  -0.022078   0.215950   0.005569  -0.000187
    12  H   -0.000137   0.006951  -0.033762  -0.000319   0.347473  -0.042941
    13  H    0.000003   0.000436   0.004624  -0.000063  -0.040469   0.359623
    14  H   -0.000124   0.003463   0.000708   0.000002   0.004245  -0.041742
    15  H   -0.010147  -0.036178   0.003815  -0.000040   0.000421   0.004572
    16  H   -0.011016   0.011108  -0.000053   0.000020   0.000003   0.000001
               7          8          9         10         11         12
     1  C    0.005216  -0.045914   0.481092   0.302803  -0.000167  -0.000137
     2  C   -0.017734   0.467788  -0.076761  -0.085703  -0.015362   0.006951
     3  C   -0.041892  -0.028455  -0.002416   0.002008  -0.022078  -0.033762
     4  O    0.000120   0.004114  -0.031411  -0.000024   0.215950  -0.000319
     5  C   -0.029612  -0.041030   0.000529  -0.000075   0.005569   0.347473
     6  C    0.521628  -0.029068  -0.000015   0.000003  -0.000187  -0.042941
     7  C    4.902348   0.518579  -0.000052   0.000368  -0.000002   0.004522
     8  C    0.518579   4.994324   0.003950   0.002010  -0.000119   0.000352
     9  O   -0.000052   0.003950   8.167258  -0.086817   0.067911   0.000007
    10  O    0.000368   0.002010  -0.086817   8.208588   0.000845   0.000000
    11  H   -0.000002  -0.000119   0.067911   0.000845   0.302626  -0.000058
    12  H    0.004522   0.000352   0.000007   0.000000  -0.000058   0.576022
    13  H   -0.042902   0.004930   0.000000   0.000000   0.000004  -0.006208
    14  H    0.362127  -0.038275   0.000000  -0.000003   0.000000  -0.000148
    15  H   -0.041618   0.359000   0.000114   0.007996  -0.000018   0.000015
    16  H    0.000005  -0.000593   0.009843   0.224221  -0.000063   0.000000
              13         14         15         16
     1  C    0.000003  -0.000124  -0.010147  -0.011016
     2  C    0.000436   0.003463  -0.036178   0.011108
     3  C    0.004624   0.000708   0.003815  -0.000053
     4  O   -0.000063   0.000002  -0.000040   0.000020
     5  C   -0.040469   0.004245   0.000421   0.000003
     6  C    0.359623  -0.041742   0.004572   0.000001
     7  C   -0.042902   0.362127  -0.041618   0.000005
     8  C    0.004930  -0.038275   0.359000  -0.000593
     9  O    0.000000   0.000000   0.000114   0.009843
    10  O    0.000000  -0.000003   0.007996   0.224221
    11  H    0.000004   0.000000  -0.000018  -0.000063
    12  H   -0.006208  -0.000148   0.000015   0.000000
    13  H    0.584663  -0.005224  -0.000176   0.000000
    14  H   -0.005224   0.585103  -0.005091   0.000000
    15  H   -0.000176  -0.005091   0.555889  -0.000219
    16  H    0.000000   0.000000  -0.000219   0.348693
 Mulliken charges:
               1
     1  C    0.571745
     2  C    0.024437
     3  C    0.308200
     4  O   -0.645831
     5  C   -0.162207
     6  C   -0.123011
     7  C   -0.141101
     8  C   -0.171593
     9  O   -0.533232
    10  O   -0.576222
    11  H    0.445149
    12  H    0.148231
    13  H    0.140760
    14  H    0.134959
    15  H    0.161666
    16  H    0.418049
 Sum of Mulliken charges =   0.00000
 Mulliken charges with hydrogens summed into heavy atoms:
               1
     1  C    0.571745
     2  C    0.024437
     3  C    0.308200
     4  O   -0.200681
     5  C   -0.013976
     6  C    0.017750
     7  C   -0.006142
     8  C   -0.009927
     9  O   -0.533232
    10  O   -0.158173
 Electronic spatial extent (au):  <R**2>=           1351.0534
 Charge=              0.0000 electrons
 Dipole moment (field-independent basis, Debye):
    X=             -0.1547    Y=             -2.0648    Z=             -0.0003  Tot=              2.0706
 Quadrupole moment (field-independent basis, Debye-Ang):
   XX=            -46.4227   YY=            -57.3291   ZZ=            -58.2068
   XY=             -2.9847   XZ=             -0.0006   YZ=             -0.0007
 Traceless Quadrupole moment (field-independent basis, Debye-Ang):
   XX=              7.5635   YY=             -3.3429   ZZ=             -4.2206
   XY=             -2.9847   XZ=             -0.0006   YZ=             -0.0007
 Octapole moment (field-independent basis, Debye-Ang**2):
  XXX=             25.2961  YYY=             -5.9704  ZZZ=              0.0004  XYY=              4.0075
  XXY=            -14.1726  XXZ=              0.0016  XZZ=             11.9471  YZZ=              3.3397
  YYZ=             -0.0001  XYZ=             -0.0022
 Hexadecapole moment (field-independent basis, Debye-Ang**3):
 XXXX=           -889.3811 YYYY=           -572.8277 ZZZZ=            -53.7847 XXXY=            -73.2113
 XXXZ=              0.0034 YYYX=              9.9815 YYYZ=             -0.0020 ZZZX=              0.0015
 ZZZY=             -0.0008 XXYY=           -246.0246 XXZZ=           -195.0285 YYZZ=           -109.0333
 XXYZ=             -0.0056 YYXZ=             -0.0001 ZZXY=             -3.2680
 N-N= 5.019420356285D+02 E-N=-2.162284083104D+03  KE= 4.915560141700D+02
 No NMR shielding tensors so no spin-rotation constants.
 Leave Link  601 at Thu Jul  6 18:08:27 2023, MaxMem=   458752000 cpu:         0.1
 (Enter /opt/apps/apps/binapps/gaussian/g09d01_em64t/g09/l701.exe)
 Compute integral first derivatives.
 ... and contract with generalized density number  0.
 R6Disp: Adding Grimme-D3 dispersion energy 1st derivatives to the gradient.
 Leave Link  701 at Thu Jul  6 18:08:27 2023, MaxMem=   458752000 cpu:         0.1
 (Enter /opt/apps/apps/binapps/gaussian/g09d01_em64t/g09/l702.exe)
 L702 exits ... SP integral derivatives will be done elsewhere.
 Leave Link  702 at Thu Jul  6 18:08:27 2023, MaxMem=   458752000 cpu:         0.0
 (Enter /opt/apps/apps/binapps/gaussian/g09d01_em64t/g09/l703.exe)
 Compute integral first derivatives, UseDBF=F ICtDFT=           0.
 Integral derivatives from FoFJK, PRISM(SPDF).
 Calling FoFJK, ICntrl=      2127 FMM=F ISym2X=0 I1Cent= 0 IOpClX= 0 NMat=1 NMatS=1 NMatT=0.
 FoFJK:  IHMeth= 1 ICntrl=    2127 DoSepK=F KAlg= 0 I1Cent=   0 FoldK=F
 IRaf=         0 NMat=   1 IRICut=       1 DoRegI=T DoRafI=F ISym2E= 0.
 FoFCou: FMM=F IPFlag=           0 FMFlag=      100000 FMFlg1=         800
         NFxFlg=           0 DoJE=F BraDBF=F KetDBF=F FulRan=T
         wScrn=  0.000000 ICntrl=    2127 IOpCl=  0 I1Cent=           0 NGrid=           0
         NMat0=    1 NMatS0=      1 NMatT0=    0 NMatD0=    1 NMtDS0=    0 NMtDT0=    0
 Symmetry not used in FoFCou.
 Leave Link  703 at Thu Jul  6 18:08:40 2023, MaxMem=   458752000 cpu:        13.3
 (Enter /opt/apps/apps/binapps/gaussian/g09d01_em64t/g09/l716.exe)
 Dipole        =-6.08652273D-02-8.12357514D-01-1.13272690D-04
 ***** Axes restored to original set *****
 -------------------------------------------------------------------
 Center     Atomic                   Forces (Hartrees/Bohr)
 Number     Number              X              Y              Z
 -------------------------------------------------------------------
      1        6          -0.000003926   -0.000057683    0.000046421
      2        6           0.000089463   -0.000052727   -0.000013061
      3        6           0.000016448    0.000142965   -0.000002201
      4        8          -0.000009691   -0.000069424   -0.000002897
      5        6          -0.000108459   -0.000040797    0.000000486
      6        6           0.000036651    0.000064432    0.000000494
      7        6           0.000015091   -0.000063753   -0.000000242
      8        6          -0.000067628   -0.000043362    0.000000063
      9        8           0.000051062    0.000084684   -0.000020704
     10        8           0.000060825    0.000021041   -0.000013232
     11        1          -0.000033850   -0.000028448    0.000005566
     12        1           0.000041783   -0.000015314   -0.000000044
     13        1           0.000006059    0.000007977    0.000000048
     14        1           0.000022102    0.000017051    0.000000283
     15        1           0.000018478    0.000045848   -0.000000824
     16        1          -0.000134407   -0.000012491   -0.000000156
 -------------------------------------------------------------------
 Cartesian Forces:  Max     0.000142965 RMS     0.000048260
 Leave Link  716 at Thu Jul  6 18:08:40 2023, MaxMem=   458752000 cpu:         0.0
 (Enter /opt/apps/apps/binapps/gaussian/g09d01_em64t/g09/l103.exe)

 GradGradGradGradGradGradGradGradGradGradGradGradGradGradGradGradGradGrad
 Berny optimization.
 FormGI is forming the generalized inverse of G from B-inverse, IUseBI=4.
 GSVD:  received Info=                   1 from GESDD.
 Internal  Forces:  Max     0.000135201 RMS     0.000033970
 Search for a local minimum.
 Step number   1 out of a maximum of   81
 All quantities printed in internal units (Hartrees-Bohrs-Radians)
 RMS Force = .34166D-04 SwitMx=.10000D-02 MixMth= 2
 Mixed Optimization -- En-DIIS/RFO-DIIS
 Second derivative matrix not updated -- first step.
 ITU=  0
     Eigenvalues ---    0.01416   0.01671   0.01902   0.02016   0.02089
     Eigenvalues ---    0.02093   0.02138   0.02150   0.02171   0.02207
     Eigenvalues ---    0.02351   0.02435   0.16000   0.16000   0.16000
     Eigenvalues ---    0.16000   0.16000   0.16000   0.22000   0.22481
     Eigenvalues ---    0.24475   0.25000   0.25000   0.25000   0.25000
     Eigenvalues ---    0.35170   0.35345   0.35392   0.35445   0.36332
     Eigenvalues ---    0.40186   0.41510   0.43672   0.44648   0.46790
     Eigenvalues ---    0.47647   0.49862   0.52320   0.54981   0.56359
     Eigenvalues ---    0.900211000.000001000.000001000.000001000.00000
     Eigenvalues --- 1000.000001000.000001000.000001000.000001000.00000
     Eigenvalues --- 1000.000001000.000001000.000001000.000001000.00000
     Eigenvalues --- 1000.000001000.000001000.000001000.000001000.00000
     Eigenvalues --- 1000.000001000.000001000.000001000.000001000.00000
     Eigenvalues --- 1000.000001000.000001000.000001000.000001000.00000
     Eigenvalues --- 1000.00000
 RFO step:  Lambda=-2.82786969D-07 EMin= 1.41638508D-02
 Linear search not attempted -- first point.
 Iteration  1 RMS(Cart)=  0.00037894 RMS(Int)=  0.00000014
 Iteration  2 RMS(Cart)=  0.00000016 RMS(Int)=  0.00000004
 Iteration  1 RMS(Cart)=  0.00000000 RMS(Int)=  0.00000000
 ITry= 1 IFail=0 DXMaxC= 1.65D-03 DCOld= 1.00D+10 DXMaxT= 3.00D-01 DXLimC= 3.00D+00 Rises=F
 Variable       Old X    -DE/DX   Delta X   Delta X   Delta X     New X
                                 (Linear)    (Quad)   (Total)
    R1        2.76866  -0.00003   0.00000  -0.00007  -0.00007   2.76858
    R2        2.32923   0.00010   0.00000   0.00011   0.00011   2.32934
    R3        2.55149  -0.00004   0.00000  -0.00007  -0.00007   2.55142
    R4        2.68397   0.00004   0.00000   0.00009   0.00009   2.68406
    R5        2.66311   0.00001   0.00000   0.00002   0.00002   2.66312
    R6        2.53944  -0.00011   0.00000  -0.00019  -0.00019   2.53925
    R7        2.65399   0.00002   0.00000   0.00004   0.00004   2.65403
    R8        1.86705  -0.00003   0.00000  -0.00006  -0.00006   1.86699
    R9        2.62093  -0.00005   0.00000  -0.00010  -0.00010   2.62083
   R10        2.05044  -0.00003   0.00000  -0.00009  -0.00009   2.05034
   R11        2.65436   0.00004   0.00000   0.00009   0.00009   2.65445
   R12        2.05400  -0.00001   0.00000  -0.00002  -0.00002   2.05398
   R13        2.61763  -0.00003   0.00000  -0.00006  -0.00006   2.61757
   R14        2.05118  -0.00003   0.00000  -0.00007  -0.00007   2.05111
   R15        2.04958  -0.00003   0.00000  -0.00009  -0.00009   2.04950
   R16        1.84294  -0.00014   0.00000  -0.00026  -0.00026   1.84268
    A1        2.17580   0.00004   0.00000   0.00018   0.00018   2.17598
    A2        2.00301  -0.00009   0.00000  -0.00038  -0.00038   2.00263
    A3        2.10437   0.00005   0.00000   0.00020   0.00020   2.10458
    A4        2.07315   0.00003   0.00000   0.00012   0.00012   2.07327
    A5        2.12589  -0.00002   0.00000  -0.00008  -0.00008   2.12580
    A6        2.08415  -0.00001   0.00000  -0.00004  -0.00004   2.08412
    A7        2.15020  -0.00004   0.00000  -0.00016  -0.00016   2.15004
    A8        2.08010   0.00000   0.00000  -0.00001  -0.00001   2.08009
    A9        2.05289   0.00004   0.00000   0.00017   0.00017   2.05305
   A10        1.87530  -0.00006   0.00000  -0.00040  -0.00040   1.87490
   A11        2.09840   0.00000   0.00000  -0.00002  -0.00002   2.09838
   A12        2.05947  -0.00003   0.00000  -0.00018  -0.00018   2.05928
   A13        2.12532   0.00003   0.00000   0.00020   0.00020   2.12552
   A14        2.11212   0.00002   0.00000   0.00008   0.00008   2.11220
   A15        2.08121  -0.00002   0.00000  -0.00010  -0.00010   2.08111
   A16        2.08985   0.00000   0.00000   0.00002   0.00002   2.08988
   A17        2.08210  -0.00001   0.00000  -0.00008  -0.00008   2.08203
   A18        2.10113   0.00002   0.00000   0.00010   0.00010   2.10123
   A19        2.09995   0.00000   0.00000  -0.00002  -0.00002   2.09993
   A20        2.10949   0.00001   0.00000   0.00007   0.00007   2.10956
   A21        2.06999  -0.00005   0.00000  -0.00028  -0.00028   2.06971
   A22        2.10371   0.00003   0.00000   0.00021   0.00021   2.10392
   A23        1.85098  -0.00002   0.00000  -0.00011  -0.00011   1.85087
    D1        0.00022  -0.00001   0.00000  -0.00117  -0.00117  -0.00095
    D2       -3.14137  -0.00001   0.00000  -0.00106  -0.00106   3.14076
    D3        3.14147   0.00001   0.00000   0.00000   0.00000   3.14147
    D4       -0.00012   0.00001   0.00000   0.00011   0.00011  -0.00001
    D5       -3.14142  -0.00001   0.00000  -0.00056  -0.00056   3.14120
    D6       -0.00016   0.00001   0.00000   0.00055   0.00055   0.00039
    D7        0.00003   0.00000   0.00000  -0.00006  -0.00006  -0.00003
    D8       -3.14158   0.00000   0.00000   0.00001   0.00001  -3.14157
    D9       -3.14157   0.00000   0.00000  -0.00017  -0.00017   3.14145
   D10        0.00001   0.00000   0.00000  -0.00009  -0.00009  -0.00009
   D11        3.14157   0.00000   0.00000  -0.00003  -0.00003   3.14155
   D12        0.00000   0.00000   0.00000  -0.00007  -0.00007  -0.00006
   D13       -0.00001   0.00000   0.00000   0.00008   0.00008   0.00007
   D14       -3.14158   0.00000   0.00000   0.00004   0.00004  -3.14154
   D15        0.00005   0.00000   0.00000  -0.00017  -0.00017  -0.00012
   D16       -3.14153  -0.00001   0.00000  -0.00024  -0.00024   3.14142
   D17       -0.00001   0.00000   0.00000   0.00005   0.00005   0.00004
   D18        3.14159   0.00000   0.00000   0.00001   0.00001  -3.14158
   D19        3.14157   0.00000   0.00000   0.00012   0.00012  -3.14149
   D20       -0.00001   0.00000   0.00000   0.00008   0.00008   0.00007
   D21        0.00001   0.00000   0.00000   0.00001   0.00001   0.00001
   D22       -3.14159   0.00000   0.00000  -0.00002  -0.00002   3.14158
   D23        3.14159   0.00000   0.00000   0.00005   0.00005  -3.14154
   D24        0.00000   0.00000   0.00000   0.00002   0.00002   0.00002
   D25       -0.00001   0.00000   0.00000  -0.00002  -0.00002  -0.00003
   D26        3.14159   0.00000   0.00000  -0.00002  -0.00002   3.14157
   D27        3.14159   0.00000   0.00000   0.00000   0.00000   3.14159
   D28        0.00000   0.00000   0.00000   0.00000   0.00000   0.00000
   D29        0.00001   0.00000   0.00000  -0.00002  -0.00002  -0.00001
   D30        3.14158   0.00000   0.00000   0.00002   0.00002  -3.14159
   D31       -3.14159   0.00000   0.00000  -0.00002  -0.00002   3.14158
   D32       -0.00002   0.00000   0.00000   0.00002   0.00002   0.00000
         Item               Value     Threshold  Converged?
 Maximum Force            0.000135     0.000450     YES
 RMS     Force            0.000034     0.000300     YES
 Maximum Displacement     0.001648     0.001800     YES
 RMS     Displacement     0.000379     0.001200     YES
 Predicted change in Energy=-1.413935D-07
 Optimization completed.
    -- Stationary point found.
                           ----------------------------
                           !   Optimized Parameters   !
                           ! (Angstroms and Degrees)  !
 --------------------------                            --------------------------
 ! Name  Definition              Value          Derivative Info.                !
 --------------------------------------------------------------------------------
 ! R1    R(1,2)                  1.4651         -DE/DX =    0.0                 !
 ! R2    R(1,9)                  1.2326         -DE/DX =    0.0001              !
 ! R3    R(1,10)                 1.3502         -DE/DX =    0.0                 !
 ! R4    R(2,3)                  1.4203         -DE/DX =    0.0                 !
 ! R5    R(2,8)                  1.4093         -DE/DX =    0.0                 !
 ! R6    R(3,4)                  1.3438         -DE/DX =   -0.0001              !
 ! R7    R(3,5)                  1.4044         -DE/DX =    0.0                 !
 ! R8    R(4,11)                 0.988          -DE/DX =    0.0                 !
 ! R9    R(5,6)                  1.3869         -DE/DX =    0.0                 !
 ! R10   R(5,12)                 1.085          -DE/DX =    0.0                 !
 ! R11   R(6,7)                  1.4046         -DE/DX =    0.0                 !
 ! R12   R(6,13)                 1.0869         -DE/DX =    0.0                 !
 ! R13   R(7,8)                  1.3852         -DE/DX =    0.0                 !
 ! R14   R(7,14)                 1.0854         -DE/DX =    0.0                 !
 ! R15   R(8,15)                 1.0846         -DE/DX =    0.0                 !
 ! R16   R(10,16)                0.9752         -DE/DX =   -0.0001              !
 ! A1    A(2,1,9)              124.6644         -DE/DX =    0.0                 !
 ! A2    A(2,1,10)             114.7639         -DE/DX =   -0.0001              !
 ! A3    A(9,1,10)             120.5717         -DE/DX =    0.0001              !
 ! A4    A(1,2,3)              118.7826         -DE/DX =    0.0                 !
 ! A5    A(1,2,8)              121.8043         -DE/DX =    0.0                 !
 ! A6    A(3,2,8)              119.413          -DE/DX =    0.0                 !
 ! A7    A(2,3,4)              123.1975         -DE/DX =    0.0                 !
 ! A8    A(2,3,5)              119.1809         -DE/DX =    0.0                 !
 ! A9    A(4,3,5)              117.6217         -DE/DX =    0.0                 !
 ! A10   A(3,4,11)             107.4466         -DE/DX =   -0.0001              !
 ! A11   A(3,5,6)              120.2296         -DE/DX =    0.0                 !
 ! A12   A(3,5,12)             117.9987         -DE/DX =    0.0                 !
 ! A13   A(6,5,12)             121.7717         -DE/DX =    0.0                 !
 ! A14   A(5,6,7)              121.0158         -DE/DX =    0.0                 !
 ! A15   A(5,6,13)             119.2444         -DE/DX =    0.0                 !
 ! A16   A(7,6,13)             119.7399         -DE/DX =    0.0                 !
 ! A17   A(6,7,8)              119.2957         -DE/DX =    0.0                 !
 ! A18   A(6,7,14)             120.3859         -DE/DX =    0.0                 !
 ! A19   A(8,7,14)             120.3184         -DE/DX =    0.0                 !
 ! A20   A(2,8,7)              120.865          -DE/DX =    0.0                 !
 ! A21   A(2,8,15)             118.6015         -DE/DX =    0.0                 !
 ! A22   A(7,8,15)             120.5334         -DE/DX =    0.0                 !
 ! A23   A(1,10,16)            106.0534         -DE/DX =    0.0                 !
 ! D1    D(9,1,2,3)              0.0125         -DE/DX =    0.0                 !
 ! D2    D(9,1,2,8)            180.013          -DE/DX =    0.0                 !
 ! D3    D(10,1,2,3)           179.9927         -DE/DX =    0.0                 !
 ! D4    D(10,1,2,8)            -0.0068         -DE/DX =    0.0                 !
 ! D5    D(2,1,10,16)          180.0099         -DE/DX =    0.0                 !
 ! D6    D(9,1,10,16)           -0.009          -DE/DX =    0.0                 !
 ! D7    D(1,2,3,4)              0.0017         -DE/DX =    0.0                 !
 ! D8    D(1,2,3,5)           -179.999          -DE/DX =    0.0                 !
 ! D9    D(8,2,3,4)            180.0012         -DE/DX =    0.0                 !
 ! D10   D(8,2,3,5)              0.0005         -DE/DX =    0.0                 !
 ! D11   D(1,2,8,7)            179.9989         -DE/DX =    0.0                 !
 ! D12   D(1,2,8,15)             0.0002         -DE/DX =    0.0                 !
 ! D13   D(3,2,8,7)             -0.0006         -DE/DX =    0.0                 !
 ! D14   D(3,2,8,15)          -179.9993         -DE/DX =    0.0                 !
 ! D15   D(2,3,4,11)             0.0029         -DE/DX =    0.0                 !
 ! D16   D(5,3,4,11)           180.0036         -DE/DX =    0.0                 !
 ! D17   D(2,3,5,6)             -0.0005         -DE/DX =    0.0                 !
 ! D18   D(2,3,5,12)          -180.0            -DE/DX =    0.0                 !
 ! D19   D(4,3,5,6)           -180.0011         -DE/DX =    0.0                 !
 ! D20   D(4,3,5,12)            -0.0007         -DE/DX =    0.0                 !
 ! D21   D(3,5,6,7)              0.0004         -DE/DX =    0.0                 !
 ! D22   D(3,5,6,13)           180.0004         -DE/DX =    0.0                 !
 ! D23   D(12,5,6,7)          -180.0            -DE/DX =    0.0                 !
 ! D24   D(12,5,6,13)           -0.0001         -DE/DX =    0.0                 !
 ! D25   D(5,6,7,8)             -0.0005         -DE/DX =    0.0                 !
 ! D26   D(5,6,7,14)           179.9999         -DE/DX =    0.0                 !
 ! D27   D(13,6,7,8)           179.9996         -DE/DX =    0.0                 !
 ! D28   D(13,6,7,14)           -0.0001         -DE/DX =    0.0                 !
 ! D29   D(6,7,8,2)              0.0005         -DE/DX =    0.0                 !
 ! D30   D(6,7,8,15)          -180.0007         -DE/DX =    0.0                 !
 ! D31   D(14,7,8,2)           180.0002         -DE/DX =    0.0                 !
 ! D32   D(14,7,8,15)           -0.0011         -DE/DX =    0.0                 !
 --------------------------------------------------------------------------------
 Lowest energy point so far.  Saving SCF results.
 GradGradGradGradGradGradGradGradGradGradGradGradGradGradGradGradGradGrad

 Largest change from initial coordinates is atom    7       0.000 Angstoms.
 Leave Link  103 at Thu Jul  6 18:08:40 2023, MaxMem=   458752000 cpu:         0.0
 (Enter /opt/apps/apps/binapps/gaussian/g09d01_em64t/g09/l202.exe)
                          Input orientation:                          
 ---------------------------------------------------------------------
 Center     Atomic      Atomic             Coordinates (Angstroms)
 Number     Number       Type             X           Y           Z
 ---------------------------------------------------------------------
      1          6           0        1.666810   -0.213120   -0.000100
      2          6           0        0.202090   -0.246930   -0.000060
      3          6           0       -0.510310    0.981780   -0.000020
      4          8           0        0.093440    2.182330   -0.000050
      5          6           0       -1.914560    0.959130    0.000040
      6          6           0       -2.593420   -0.250310    0.000050
      7          6           0       -1.897940   -1.470670    0.000010
      8          6           0       -0.512780   -1.461410   -0.000050
      9          8           0        2.344280    0.816580    0.000120
     10          8           0        2.260520   -1.425770    0.000020
     11          1           0        1.068590    2.023500   -0.000150
     12          1           0       -2.439320    1.908840    0.000070
     13          1           0       -3.680350   -0.249150    0.000090
     14          1           0       -2.439600   -2.411300    0.000020
     15          1           0        0.044470   -2.391900   -0.000070
     16          1           0        3.220850   -1.255870    0.000140
 ---------------------------------------------------------------------
                    Distance matrix (angstroms):
                    1          2          3          4          5
     1  C    0.000000
     2  C    1.465110   0.000000
     3  C    2.483473   1.420296   0.000000
     4  O    2.865951   2.431689   1.343813   0.000000
     5  C    3.768339   2.436142   1.404433   2.351230   0.000000
     6  C    4.260392   2.795512   2.420205   3.624494   1.386938
     7  C    3.780063   2.430569   2.817806   4.160529   2.429857
     8  C    2.511741   1.409255   2.443191   3.693825   2.797142
     9  O    1.232578   2.391659   2.859366   2.632784   4.261225
    10  O    1.350189   2.372087   3.670667   4.208874   4.808226
    11  H    2.315240   2.430159   1.891588   0.988000   3.167344
    12  H    4.622014   3.409456   2.140215   2.547483   1.085045
    13  H    5.347281   3.882441   3.400639   4.489275   2.139616
    14  H    4.657746   3.415117   3.903223   5.245734   3.411080
    15  H    2.716444   2.150753   3.418991   4.574492   3.881649
    16  H    1.871461   3.182903   4.350705   4.647786   5.592733
                    6          7          8          9         10
     6  C    0.000000
     7  C    1.404625   0.000000
     8  C    2.407452   1.385191   0.000000
     9  O    5.051647   4.819538   3.654043   0.000000
    10  O    4.994241   4.158702   2.773529   2.243914   0.000000
    11  H    4.310514   4.583615   3.826922   1.756144   3.649406
    12  H    2.164642   3.422598   3.882028   4.906716   5.762649
    13  H    1.086931   2.160809   3.391618   6.118165   6.056267
    14  H    2.166458   1.085440   2.148238   5.771024   4.802332
    15  H    3.397774   2.149796   1.084592   3.947590   2.417496
    16  H    5.900584   5.123295   3.739283   2.250205   0.975243
                   11         12         13         14         15
    11  H    0.000000
    12  H    3.509783   0.000000
    13  H    5.264729   2.489393   0.000000
    14  H    5.654631   4.320140   2.492860   0.000000
    15  H    4.532613   4.966445   4.297169   2.484146   0.000000
    16  H    3.922562   6.484822   6.974242   5.777172   3.373419
                   16
    16  H    0.000000
 Stoichiometry    C7H6O3
 Framework group  C1[X(C7H6O3)]
 Deg. of freedom    42
 Full point group                 C1      NOp   1
 RotChk:  IX=0 Diff= 1.31D-16
 Largest Abelian subgroup         C1      NOp   1
 Largest concise Abelian subgroup C1      NOp   1
                         Standard orientation:                         
 ---------------------------------------------------------------------
 Center     Atomic      Atomic             Coordinates (Angstroms)
 Number     Number       Type             X           Y           Z
 ---------------------------------------------------------------------
      1          6           0        1.666811   -0.213121   -0.000101
      2          6           0        0.202091   -0.246931   -0.000061
      3          6           0       -0.510308    0.981779   -0.000021
      4          8           0        0.093442    2.182329   -0.000051
      5          6           0       -1.914558    0.959130    0.000039
      6          6           0       -2.593419   -0.250310    0.000049
      7          6           0       -1.897939   -1.470670    0.000009
      8          6           0       -0.512779   -1.461411   -0.000051
      9          8           0        2.344282    0.816578    0.000119
     10          8           0        2.260521   -1.425772    0.000019
     11          1           0        1.068592    2.023499   -0.000151
     12          1           0       -2.439318    1.908840    0.000069
     13          1           0       -3.680349   -0.249150    0.000089
     14          1           0       -2.439599   -2.411300    0.000019
     15          1           0        0.044471   -2.391901   -0.000071
     16          1           0        3.220851   -1.255872    0.000139
 ---------------------------------------------------------------------
 Rotational constants (GHZ):      2.3331172      1.2179698      0.8002244
 Leave Link  202 at Thu Jul  6 18:08:40 2023, MaxMem=   458752000 cpu:         0.0
 (Enter /opt/apps/apps/binapps/gaussian/g09d01_em64t/g09/l9999.exe)
 1\1\GINC-NODE611\FOpt\RB3LYP\6-31G(d)\C7H6O3\MBDX6CW3\06-Jul-2023\0\\#
 p b3lyp/6-31g* empiricaldispersion=gd3 opt=modredundant\\salicylic_aci
 d\\0,1\C,1.66681,-0.21312,-0.0001\C,0.20209,-0.24693,-0.00006\C,-0.510
 31,0.98178,-0.00002\O,0.09344,2.18233,-0.00005\C,-1.91456,0.95913,0.00
 004\C,-2.59342,-0.25031,0.00005\C,-1.89794,-1.47067,0.00001\C,-0.51278
 ,-1.46141,-0.00005\O,2.34428,0.81658,0.00012\O,2.26052,-1.42577,0.0000
 2\H,1.06859,2.0235,-0.00015\H,-2.43932,1.90884,0.00007\H,-3.68035,-0.2
 4915,0.00009\H,-2.4396,-2.4113,0.00002\H,0.04447,-2.3919,-0.00007\H,3.
 22085,-1.25587,0.00014\\Version=ES64L-G09RevD.01\State=1-A\HF=-496.061
 7691\RMSD=7.116e-09\RMSF=4.826e-05\Dipole=-0.060865,-0.8123575,-0.0001
 133\Quadrupole=5.623268,-2.485381,-3.1378869,-2.2190821,-0.0004602,-0.
 0005162\PG=C01 [X(C7H6O3)]\\@


 THE NUMBERS ARE MEANINGLESS, BUT THE TRENDS ARE IMPORTANT.
     -- LARRY BURGGRAF
 Job cpu time:       0 days  0 hours  0 minutes 50.1 seconds.
 File lengths (MBytes):  RWF=     13 Int=      0 D2E=      0 Chk=      3 Scr=      1
 Normal termination of Gaussian 09 at Thu Jul  6 18:08:40 2023.
